<?xml version="1.0" encoding="UTF-8"?>

<!-- generated on 2022-03-08 14:10:14 by Eclipse SUMO GUI Version v1_11_0+0960-9a7789007a4
<configuration xmlns:xsi="http://www.w3.org/2001/XMLSchema-instance" xsi:noNamespaceSchemaLocation="http://sumo.dlr.de/xsd/sumoConfiguration.xsd">

    <input>
        <net-file value="osm_edited.net.xml.gz"/>
        <route-files value="osm_activitygen.merged.rou.xml.gz"/>
        <additional-files value="pt_vtypes.xml,gtfs_publictransport.add.xml,gtfs_publictransport.rou.xml,osm_polygons.add.xml,defaults/basic.vType.xml,osm_complete_parking_areas.add.xml,osm_parking_rerouters.add.xml,osm_taxi_stands.add.xml,osm_taxi_rerouters.add.xml,induction_loops.add.xml,edge_lane_data.add.xml"/>
    </input>

    <output>
        <output-prefix value="./outputs/TIME_"/>
        <summary-output value="summary.out.xml"/>
        <person-summary-output value="person.summary.out.xml"/>
        <tripinfo-output value="tripinfo.out.xml"/>
        <tripinfo-output.write-unfinished value="false"/>
        <statistic-output value="statistics.out.xml"/>
    </output>

    <time>
        <begin value="0.0"/>
        <end value="86400.0"/>
        <step-length value="1"/>
    </time>

    <processing>
        <ignore-junction-blocker value="60"/>
        <ignore-route-errors value="true"/>
        <collision.action value="teleport"/>
        <time-to-teleport value="300"/>
        <max-depart-delay value="900"/>
        <time-to-impatience value="120"/>
        <parking.maneuver value="true"/>
        <pedestrian.model value="nonInteracting"/>
        <pedestrian.striping.stripe-width value="0.55"/>
        <pedestrian.striping.dawdling value="0.2"/>
        <pedestrian.striping.jamtime value="60"/>
        <pedestrian.striping.jamtime.crossing value="10"/>
        <pedestrian.striping.reserve-oncoming value="0.25"/>
        <pedestrian.striping.reserve-oncoming.junctions value="0.34"/>
        <ride.stop-tolerance value="25"/>
    </processing>

    <routing>
        <routing-algorithm value="astar"/>
        <persontrip.walkfactor value="0.75"/>
        <persontrip.transfer.car-walk value="parkingAreas,allJunctions"/>
        <persontrip.transfer.taxi-walk value="parkingAreas,allJunctions"/>
        <persontrip.transfer.walk-taxi value="parkingAreas,allJunctions"/>
        <persontrip.taxi.waiting-time value="300"/>
        <device.rerouting.probability value="1"/>
        <device.rerouting.period value="300"/>
        <device.rerouting.pre-period value="300"/>
        <device.rerouting.adaptation-interval value="10"/>
        <device.rerouting.threads value="4"/>
        <device.rerouting.bike-speeds value="true"/>
        <person-device.rerouting.probability value="1"/>
        <person-device.rerouting.period value="300"/>
    </routing>

    <report>
        <verbose value="true"/>
        <no-warnings value="false"/>
        <duration-log.disable value="false"/>
        <duration-log.statistics value="true"/>
        <no-step-log value="false"/>
    </report>

    <taxi_device>
        <device.taxi.dispatch-algorithm value="greedy"/>
        <device.taxi.dispatch-algorithm.output value="taxi.dispatch.out.xml"/>
        <device.taxi.dispatch-period value="60"/>
        <device.taxi.idle-algorithm value="stop"/>
        <device.taxi.idle-algorithm.output value="taxi.idle.out.xml"/>
    </taxi_device>

    <random_number>
        <seed value="42"/>
    </random_number>

    <gui_only>
        <gui-settings-file value="defaults/default-gui.xml"/>
        <tracker-interval value="1"/>
    </gui_only>

</configuration>
-->

<tripinfos xmlns:xsi="http://www.w3.org/2001/XMLSchema-instance" xsi:noNamespaceSchemaLocation="http://sumo.dlr.de/xsd/tripinfo_file.xsd">
    <tripinfo id="10454276.0" depart="1790.00" departLane="325187141#1_1" departPos="12.10" departSpeed="0.00" departDelay="0.00" arrival="1874.00" arrivalLane="720137340_1" arrivalPos="3.64" arrivalSpeed="2.63" duration="84.00" routeLength="404.57" waitingTime="1.00" waitingCount="1" stopTime="20.00" timeLoss="31.68" rerouteNo="0" devices="tripinfo_10454276.0" vType="bus" speedFactor="1.07" vaporized=""/>
    <tripinfo id="10010282.0" depart="1796.00" departLane="325187141#1_1" departPos="12.10" departSpeed="0.00" departDelay="6.00" arrival="1902.00" arrivalLane="720137340_1" arrivalPos="3.64" arrivalSpeed="3.17" duration="106.00" routeLength="404.57" waitingTime="15.00" waitingCount="3" stopTime="20.00" timeLoss="53.14" rerouteNo="0" devices="tripinfo_10010282.0" vType="bus" speedFactor="1.06" vaporized=""/>
    <tripinfo id="10180339.0" depart="18410.00" departLane="325187141#0_1" departPos="5.63" departSpeed="0.00" departDelay="0.00" arrival="19116.00" arrivalLane="67332189#3_1" arrivalPos="15.64" arrivalSpeed="0.91" duration="706.00" routeLength="6026.34" waitingTime="5.00" waitingCount="4" stopTime="189.00" timeLoss="88.94" rerouteNo="0" devices="tripinfo_10180339.0" vType="bus" speedFactor="0.99" vaporized=""/>
    <tripinfo id="10102128.0" depart="19010.00" departLane="325187141#0_1" departPos="5.63" departSpeed="0.00" departDelay="0.00" arrival="19381.00" arrivalLane="286130639#2_1" arrivalPos="1.93" arrivalSpeed="10.39" duration="371.00" routeLength="1518.01" waitingTime="17.00" waitingCount="4" stopTime="181.00" timeLoss="84.81" rerouteNo="0" devices="tripinfo_10102128.0" vType="bus" speedFactor="1.10" vaporized=""/>
    <tripinfo id="10180489.0" depart="18650.00" departLane="-67332189#3_1" departPos="12.10" departSpeed="0.00" departDelay="0.00" arrival="19497.00" arrivalLane="65547466_1" arrivalPos="99.72" arrivalSpeed="6.00" duration="847.00" routeLength="6374.57" waitingTime="2.00" waitingCount="2" stopTime="194.00" timeLoss="101.66" rerouteNo="0" devices="tripinfo_10180489.0" vType="bus" speedFactor="0.93" vaporized=""/>
    <tripinfo id="10454283.0" depart="19790.00" departLane="325187141#1_1" departPos="12.10" departSpeed="0.00" departDelay="0.00" arrival="19881.00" arrivalLane="720137340_1" arrivalPos="3.64" arrivalSpeed="2.60" duration="91.00" routeLength="404.57" waitingTime="8.00" waitingCount="3" stopTime="20.00" timeLoss="36.90" rerouteNo="0" devices="tripinfo_10454283.0" vType="bus" speedFactor="1.02" vaporized=""/>
    <tripinfo id="10010322.0" depart="19796.00" departLane="325187141#1_1" departPos="12.10" departSpeed="0.00" departDelay="6.00" arrival="19910.00" arrivalLane="720137340_1" arrivalPos="3.64" arrivalSpeed="3.07" duration="114.00" routeLength="404.57" waitingTime="19.00" waitingCount="4" stopTime="20.00" timeLoss="56.14" rerouteNo="0" devices="tripinfo_10010322.0" vType="bus" speedFactor="0.92" vaporized=""/>
    <tripinfo id="10454252.0" depart="19790.00" departLane="159980917_1" departPos="8.56" departSpeed="0.00" departDelay="0.00" arrival="19972.00" arrivalLane="65547466_1" arrivalPos="99.72" arrivalSpeed="6.32" duration="182.00" routeLength="513.42" waitingTime="7.00" waitingCount="2" stopTime="20.00" timeLoss="43.14" rerouteNo="0" devices="tripinfo_10454252.0" vType="bus" speedFactor="0.81" vaporized=""/>
    <tripinfo id="10010336.0" depart="19806.00" departLane="159980917_1" departPos="8.56" departSpeed="0.00" departDelay="16.00" arrival="19982.00" arrivalLane="65547466_1" arrivalPos="99.72" arrivalSpeed="8.40" duration="176.00" routeLength="513.42" waitingTime="7.00" waitingCount="2" stopTime="20.00" timeLoss="50.05" rerouteNo="0" devices="tripinfo_10010336.0" vType="bus" speedFactor="0.92" vaporized=""/>
    <tripinfo id="10011008.0" depart="19190.00" departLane="325187141#0_1" departPos="5.63" departSpeed="0.00" departDelay="0.00" arrival="20210.00" arrivalLane="124416773#0_1" arrivalPos="183.14" arrivalSpeed="15.63" duration="1020.00" routeLength="7371.60" waitingTime="36.00" waitingCount="8" stopTime="213.00" timeLoss="228.93" rerouteNo="0" devices="tripinfo_10011008.0" vType="bus" speedFactor="1.13" vaporized=""/>
    <tripinfo id="10009326.0" depart="20450.00" departLane="-67332189#3_1" departPos="12.10" departSpeed="0.00" departDelay="0.00" arrival="21296.00" arrivalLane="65547466_1" arrivalPos="99.72" arrivalSpeed="6.62" duration="846.00" routeLength="6374.57" waitingTime="25.00" waitingCount="4" stopTime="220.00" timeLoss="147.82" rerouteNo="0" devices="tripinfo_10009326.0" vType="bus" speedFactor="1.08" vaporized=""/>
    <tripinfo id="10180431.0" depart="20810.00" departLane="325187141#0_1" departPos="5.63" departSpeed="0.00" departDelay="0.00" arrival="21564.00" arrivalLane="67332189#3_1" arrivalPos="15.64" arrivalSpeed="0.63" duration="754.00" routeLength="6026.34" waitingTime="41.00" waitingCount="6" stopTime="179.00" timeLoss="153.79" rerouteNo="0" devices="tripinfo_10180431.0" vType="bus" speedFactor="1.01" vaporized=""/>
    <tripinfo id="10010920.0" depart="20810.00" departLane="-127529207#5_1" departPos="12.10" departSpeed="0.00" departDelay="0.00" arrival="21604.00" arrivalLane="720137343#0_1" arrivalPos="40.26" arrivalSpeed="9.78" duration="794.00" routeLength="5256.46" waitingTime="46.00" waitingCount="8" stopTime="174.00" timeLoss="247.84" rerouteNo="0" devices="tripinfo_10010920.0" vType="bus" speedFactor="0.99" vaporized=""/>
    <tripinfo id="10010836.0" depart="21170.00" departLane="241913077#2_1" departPos="12.10" departSpeed="0.00" departDelay="0.00" arrival="21896.00" arrivalLane="65547466_1" arrivalPos="99.72" arrivalSpeed="6.99" duration="726.00" routeLength="5234.84" waitingTime="97.00" waitingCount="9" stopTime="99.00" timeLoss="265.23" rerouteNo="0" devices="tripinfo_10010836.0" vType="bus" speedFactor="1.13" vaporized=""/>
    <tripinfo id="10010781.0" depart="20090.00" departLane="104668977#0_1" departPos="12.10" departSpeed="0.00" departDelay="0.00" arrival="21914.00" arrivalLane="-241913077#2_1" arrivalPos="221.64" arrivalSpeed="12.42" duration="1824.00" routeLength="16367.62" waitingTime="23.00" waitingCount="6" stopTime="194.00" timeLoss="257.19" rerouteNo="0" devices="tripinfo_10010781.0" vType="bus" speedFactor="0.89" vaporized=""/>
    <tripinfo id="10009866.0" depart="21590.00" departLane="124416778#0_1" departPos="12.10" departSpeed="0.00" departDelay="0.00" arrival="22158.00" arrivalLane="101368444_1" arrivalPos="87.70" arrivalSpeed="11.94" duration="568.00" routeLength="3718.50" waitingTime="5.00" waitingCount="5" stopTime="70.00" timeLoss="112.33" rerouteNo="0" devices="tripinfo_10009866.0" vType="bus" speedFactor="0.88" vaporized=""/>
    <tripinfo id="10009294.0" depart="21590.00" departLane="325187141#0_1" departPos="5.63" departSpeed="0.00" departDelay="0.00" arrival="22300.00" arrivalLane="67332189#3_1" arrivalPos="15.64" arrivalSpeed="0.65" duration="710.00" routeLength="6026.34" waitingTime="10.00" waitingCount="5" stopTime="170.00" timeLoss="112.19" rerouteNo="0" devices="tripinfo_10009294.0" vType="bus" speedFactor="0.99" vaporized=""/>
    <tripinfo id="10100715.0" depart="22250.00" departLane="-159950182#1_1" departPos="12.10" departSpeed="0.00" departDelay="0.00" arrival="22515.00" arrivalLane="-172189511#9_1" arrivalPos="30.56" arrivalSpeed="9.53" duration="265.00" routeLength="1650.80" waitingTime="1.00" waitingCount="1" stopTime="40.00" timeLoss="52.41" rerouteNo="0" devices="tripinfo_10100715.0" vType="bus" speedFactor="1.16" vaporized=""/>
    <tripinfo id="10100829.0" depart="22310.00" departLane="200313022#3_1" departPos="12.10" departSpeed="0.00" departDelay="0.00" arrival="22525.00" arrivalLane="159818666#4_1" arrivalPos="79.65" arrivalSpeed="8.97" duration="215.00" routeLength="1125.77" waitingTime="0.00" waitingCount="0" stopTime="30.00" timeLoss="48.32" rerouteNo="0" devices="tripinfo_10100829.0" vType="bus" speedFactor="1.10" vaporized=""/>
    <tripinfo id="10101080.0" depart="22250.00" departLane="291223659#2_1" departPos="8.20" departSpeed="0.00" departDelay="0.00" arrival="22768.00" arrivalLane="34750079#2_1" arrivalPos="383.73" arrivalSpeed="8.72" duration="518.00" routeLength="3928.72" waitingTime="0.00" waitingCount="0" stopTime="71.00" timeLoss="94.62" rerouteNo="0" devices="tripinfo_10101080.0" vType="bus" speedFactor="1.07" vaporized=""/>
    <tripinfo id="10102102.0" depart="22610.00" departLane="325187141#0_1" departPos="5.63" departSpeed="0.00" departDelay="0.00" arrival="22988.00" arrivalLane="286130639#2_1" arrivalPos="1.93" arrivalSpeed="10.07" duration="378.00" routeLength="1518.01" waitingTime="40.00" waitingCount="8" stopTime="129.00" timeLoss="138.53" rerouteNo="0" devices="tripinfo_10102102.0 person_10102102.0" vType="bus" speedFactor="1.04" vaporized=""/>
    <tripinfo id="10009949.0" depart="23090.00" departLane="159980917_1" departPos="8.56" departSpeed="0.00" departDelay="0.00" arrival="23257.00" arrivalLane="65547466_1" arrivalPos="99.72" arrivalSpeed="6.70" duration="167.00" routeLength="513.42" waitingTime="1.00" waitingCount="1" stopTime="20.00" timeLoss="38.60" rerouteNo="0" devices="tripinfo_10009949.0" vType="bus" speedFactor="0.89" vaporized=""/>
    <tripinfo id="10010941.0" depart="22616.00" departLane="325187141#0_1" departPos="5.63" departSpeed="0.00" departDelay="6.00" arrival="23399.00" arrivalLane="127529207#2_1" arrivalPos="13.11" arrivalSpeed="6.02" duration="783.00" routeLength="4580.47" waitingTime="51.00" waitingCount="12" stopTime="151.00" timeLoss="244.69" rerouteNo="0" devices="tripinfo_10010941.0" vType="bus" speedFactor="1.02" vaporized=""/>
    <tripinfo id="10010820.0" depart="22490.00" departLane="325187141#0_1" departPos="5.63" departSpeed="0.00" departDelay="0.00" arrival="23418.00" arrivalLane="-241913077#2_1" arrivalPos="221.64" arrivalSpeed="14.71" duration="928.00" routeLength="8309.23" waitingTime="16.00" waitingCount="5" stopTime="185.00" timeLoss="206.22" rerouteNo="0" devices="tripinfo_10010820.0 person_10010820.0" vType="bus" speedFactor="1.09" vaporized=""/>
    <tripinfo id="10009851.0" depart="22790.00" departLane="-101368446#0_1" departPos="12.10" departSpeed="0.00" departDelay="0.00" arrival="23467.00" arrivalLane="720137340_1" arrivalPos="3.64" arrivalSpeed="2.96" duration="677.00" routeLength="3510.06" waitingTime="200.00" waitingCount="7" stopTime="70.00" timeLoss="354.29" rerouteNo="0" devices="tripinfo_10009851.0 person_10009851.0" vType="bus" speedFactor="1.08" vaporized=""/>
    <tripinfo id="10010870.0" depart="23390.00" departLane="325187141#1_1" departPos="12.10" departSpeed="0.00" departDelay="0.00" arrival="23499.00" arrivalLane="720137340_1" arrivalPos="3.64" arrivalSpeed="3.41" duration="109.00" routeLength="404.57" waitingTime="9.00" waitingCount="3" stopTime="20.00" timeLoss="58.05" rerouteNo="0" devices="tripinfo_10010870.0" vType="bus" speedFactor="1.13" vaporized=""/>
    <tripinfo id="10454292.0" depart="23396.00" departLane="325187141#1_1" departPos="12.10" departSpeed="0.00" departDelay="6.00" arrival="23542.00" arrivalLane="720137340_1" arrivalPos="3.64" arrivalSpeed="3.21" duration="146.00" routeLength="404.57" waitingTime="33.00" waitingCount="6" stopTime="20.00" timeLoss="90.97" rerouteNo="0" devices="tripinfo_10454292.0" vType="bus" speedFactor="0.99" vaporized=""/>
    <tripinfo id="10454261.0" depart="23390.00" departLane="159980917_1" departPos="8.56" departSpeed="0.00" departDelay="0.00" arrival="23555.00" arrivalLane="65547466_1" arrivalPos="99.72" arrivalSpeed="7.43" duration="165.00" routeLength="513.42" waitingTime="1.00" waitingCount="1" stopTime="20.00" timeLoss="37.94" rerouteNo="0" devices="tripinfo_10454261.0" vType="bus" speedFactor="0.90" vaporized=""/>
    <tripinfo id="10010313.0" depart="23416.00" departLane="325187141#1_1" departPos="12.10" departSpeed="0.00" departDelay="26.00" arrival="23561.00" arrivalLane="720137340_1" arrivalPos="3.64" arrivalSpeed="2.95" duration="145.00" routeLength="404.57" waitingTime="37.00" waitingCount="4" stopTime="20.00" timeLoss="83.68" rerouteNo="0" devices="tripinfo_10010313.0" vType="bus" speedFactor="0.84" vaporized=""/>
    <tripinfo id="10010337.0" depart="23406.00" departLane="159980917_1" departPos="8.56" departSpeed="0.00" departDelay="16.00" arrival="23565.00" arrivalLane="65547466_1" arrivalPos="99.72" arrivalSpeed="8.88" duration="159.00" routeLength="513.42" waitingTime="3.00" waitingCount="3" stopTime="20.00" timeLoss="59.46" rerouteNo="0" devices="tripinfo_10010337.0" vType="bus" speedFactor="1.21" vaporized=""/>
    <tripinfo id="10101128.0" depart="22790.00" departLane="34750079#2_1" departPos="12.10" departSpeed="0.00" departDelay="0.00" arrival="23990.00" arrivalLane="240561428#1_1" arrivalPos="2.80" arrivalSpeed="0.80" duration="1200.00" routeLength="6711.73" waitingTime="43.00" waitingCount="6" stopTime="304.00" timeLoss="234.20" rerouteNo="0" devices="tripinfo_10101128.0 person_10101128.0" vType="bus" speedFactor="0.88" vaporized=""/>
    <tripinfo id="10180495.0" depart="23150.00" departLane="-67332189#3_1" departPos="12.10" departSpeed="0.00" departDelay="0.00" arrival="23997.00" arrivalLane="65547466_1" arrivalPos="99.72" arrivalSpeed="6.25" duration="847.00" routeLength="6374.57" waitingTime="17.00" waitingCount="6" stopTime="249.00" timeLoss="139.45" rerouteNo="0" devices="tripinfo_10180495.0 person_10180495.0" vType="bus" speedFactor="1.12" vaporized=""/>
    <tripinfo id="10102089.0" depart="23690.00" departLane="102344315_1" departPos="12.10" departSpeed="0.00" departDelay="0.00" arrival="24001.00" arrivalLane="65547466_1" arrivalPos="99.72" arrivalSpeed="8.41" duration="311.00" routeLength="1202.10" waitingTime="20.00" waitingCount="3" stopTime="71.00" timeLoss="82.20" rerouteNo="0" devices="tripinfo_10102089.0 person_10102089.0" vType="bus" speedFactor="0.92" vaporized=""/>
    <tripinfo id="10100883.0" depart="22370.00" departLane="105592740#6_1" departPos="12.10" departSpeed="0.00" departDelay="0.00" arrival="24237.00" arrivalLane="-30610461#8_1" arrivalPos="44.79" arrivalSpeed="7.64" duration="1867.00" routeLength="10565.48" waitingTime="75.00" waitingCount="17" stopTime="391.00" timeLoss="455.10" rerouteNo="0" devices="tripinfo_10100883.0 person_10100883.0" vType="bus" speedFactor="0.97" vaporized=""/>
    <tripinfo id="10010999.0" depart="22880.00" departLane="-124416773#0_1" departPos="12.10" departSpeed="0.00" departDelay="0.00" arrival="24327.00" arrivalLane="65547466_1" arrivalPos="99.72" arrivalSpeed="7.07" duration="1447.00" routeLength="8244.94" waitingTime="41.00" waitingCount="9" stopTime="325.00" timeLoss="229.85" rerouteNo="0" devices="tripinfo_10010999.0 person_10010999.0" vType="bus" speedFactor="0.92" vaporized=""/>
    <tripinfo id="10100817.0" depart="22430.00" departLane="-159949969#3_1" departPos="12.10" departSpeed="0.00" departDelay="0.00" arrival="24356.00" arrivalLane="159818666#4_1" arrivalPos="79.65" arrivalSpeed="8.14" duration="1926.00" routeLength="10713.69" waitingTime="262.00" waitingCount="20" stopTime="282.00" timeLoss="679.53" rerouteNo="0" devices="tripinfo_10100817.0 person_10100817.0" vType="bus" speedFactor="1.01" vaporized=""/>
    <tripinfo id="10100770.0" depart="22430.00" departLane="151590005#3_1" departPos="12.10" departSpeed="0.00" departDelay="0.00" arrival="24376.00" arrivalLane="-172189511#9_1" arrivalPos="30.56" arrivalSpeed="10.26" duration="1946.00" routeLength="10899.02" waitingTime="172.00" waitingCount="14" stopTime="472.00" timeLoss="596.12" rerouteNo="0" devices="tripinfo_10100770.0 person_10100770.0" vType="bus" speedFactor="1.27" vaporized=""/>
    <tripinfo id="10100936.0" depart="22370.00" departLane="-30610461#9_1" departPos="9.23" departSpeed="0.00" departDelay="0.00" arrival="24408.00" arrivalLane="105592740#5_1" arrivalPos="142.63" arrivalSpeed="1.01" duration="2038.00" routeLength="9405.92" waitingTime="27.00" waitingCount="11" stopTime="913.00" timeLoss="332.31" rerouteNo="0" devices="tripinfo_10100936.0 person_10100936.0" vType="bus" speedFactor="0.97" vaporized=""/>
    <tripinfo id="10101012.0" depart="21290.00" departLane="-370552765#0_1" departPos="12.10" departSpeed="0.00" departDelay="0.00" arrival="24498.00" arrivalLane="102868617#0_1" arrivalPos="91.46" arrivalSpeed="12.18" duration="3208.00" routeLength="17399.02" waitingTime="584.00" waitingCount="22" stopTime="310.00" timeLoss="1083.98" rerouteNo="0" devices="tripinfo_10101012.0" vType="bus" speedFactor="0.93" vaporized=""/>
    <tripinfo id="10101075.0" depart="22370.00" departLane="-102868617#0_1" departPos="12.10" departSpeed="0.00" departDelay="0.00" arrival="24895.00" arrivalLane="-370552766#1_1" arrivalPos="6.83" arrivalSpeed="6.09" duration="2525.00" routeLength="14609.51" waitingTime="163.00" waitingCount="18" stopTime="603.00" timeLoss="598.85" rerouteNo="0" devices="tripinfo_10101075.0 person_10101075.0" vType="bus" speedFactor="1.03" vaporized=""/>
    <tripinfo id="10009316.0" depart="24050.00" departLane="-67332189#3_1" departPos="12.10" departSpeed="0.00" departDelay="0.00" arrival="24897.00" arrivalLane="65547466_1" arrivalPos="99.72" arrivalSpeed="6.57" duration="847.00" routeLength="6374.57" waitingTime="19.00" waitingCount="4" stopTime="142.00" timeLoss="137.10" rerouteNo="0" devices="tripinfo_10009316.0 person_10009316.0" vType="bus" speedFactor="0.91" vaporized=""/>
    <tripinfo id="10010615.0" depart="24290.00" departLane="151592248#10_1" departPos="12.10" departSpeed="0.00" departDelay="0.00" arrival="24979.00" arrivalLane="-104668977#0_1" arrivalPos="37.93" arrivalSpeed="4.98" duration="689.00" routeLength="5019.44" waitingTime="2.00" waitingCount="2" stopTime="182.00" timeLoss="80.32" rerouteNo="0" devices="tripinfo_10010615.0 person_10010615.0" vType="bus" speedFactor="0.91" vaporized=""/>
    <tripinfo id="10011017.0" depart="23990.00" departLane="325187141#0_1" departPos="5.63" departSpeed="0.00" departDelay="0.00" arrival="25166.00" arrivalLane="124416773#0_1" arrivalPos="183.14" arrivalSpeed="10.83" duration="1176.00" routeLength="7371.60" waitingTime="21.00" waitingCount="9" stopTime="212.00" timeLoss="171.09" rerouteNo="0" devices="tripinfo_10011017.0 person_10011017.0" vType="bus" speedFactor="0.82" vaporized=""/>
    <tripinfo id="10009818.0" depart="24590.00" departLane="-101368446#0_1" departPos="12.10" departSpeed="0.00" departDelay="0.00" arrival="25273.00" arrivalLane="720137340_1" arrivalPos="3.64" arrivalSpeed="2.48" duration="683.00" routeLength="3510.06" waitingTime="235.00" waitingCount="4" stopTime="70.00" timeLoss="355.77" rerouteNo="0" devices="tripinfo_10009818.0 person_10009818.0" vType="bus" speedFactor="1.07" vaporized=""/>
    <tripinfo id="10010810.0" depart="25070.00" departLane="241913077#2_1" departPos="12.10" departSpeed="0.00" departDelay="0.00" arrival="25797.00" arrivalLane="65547466_1" arrivalPos="99.72" arrivalSpeed="6.92" duration="727.00" routeLength="5234.84" waitingTime="23.00" waitingCount="9" stopTime="110.00" timeLoss="175.64" rerouteNo="0" devices="tripinfo_10010810.0" vType="bus" speedFactor="0.92" vaporized=""/>
    <tripinfo id="10009283.0" depart="25190.00" departLane="325187141#0_1" departPos="5.63" departSpeed="0.00" departDelay="0.00" arrival="26005.00" arrivalLane="67332189#3_1" arrivalPos="15.64" arrivalSpeed="0.72" duration="815.00" routeLength="6026.34" waitingTime="166.00" waitingCount="10" stopTime="81.00" timeLoss="307.70" rerouteNo="0" devices="tripinfo_10009283.0 person_10009283.0" vType="bus" speedFactor="0.99" vaporized=""/>
    <tripinfo id="10100872.0" depart="24170.00" departLane="105592740#6_1" departPos="12.10" departSpeed="0.00" departDelay="0.00" arrival="26146.00" arrivalLane="-30610461#8_1" arrivalPos="44.79" arrivalSpeed="9.28" duration="1976.00" routeLength="10565.48" waitingTime="231.00" waitingCount="23" stopTime="408.00" timeLoss="700.32" rerouteNo="0" devices="tripinfo_10100872.0 person_10100872.0" vType="bus" speedFactor="1.14" vaporized=""/>
    <tripinfo id="10100925.0" depart="24170.00" departLane="-30610461#9_1" departPos="9.23" departSpeed="0.00" departDelay="0.00" arrival="26146.00" arrivalLane="105592740#5_1" arrivalPos="142.63" arrivalSpeed="0.60" duration="1976.00" routeLength="9367.63" waitingTime="644.00" waitingCount="19" stopTime="311.00" timeLoss="1049.63" rerouteNo="0" devices="tripinfo_10100925.0 person_10100925.0" vType="bus" speedFactor="1.25" vaporized=""/>
    <tripinfo id="10100751.0" depart="24230.00" departLane="151590005#3_1" departPos="12.10" departSpeed="0.00" departDelay="0.00" arrival="26278.00" arrivalLane="-172189511#9_1" arrivalPos="30.56" arrivalSpeed="8.00" duration="2048.00" routeLength="10007.65" waitingTime="113.00" waitingCount="14" stopTime="641.00" timeLoss="402.23" rerouteNo="0" devices="tripinfo_10100751.0 person_10100751.0" vType="bus" speedFactor="1.00" vaporized=""/>
    <tripinfo id="10100809.0" depart="24230.00" departLane="-159949969#3_1" departPos="12.10" departSpeed="0.00" departDelay="0.00" arrival="26292.00" arrivalLane="159818666#4_1" arrivalPos="79.65" arrivalSpeed="10.17" duration="2062.00" routeLength="10713.69" waitingTime="446.00" waitingCount="23" stopTime="292.00" timeLoss="985.49" rerouteNo="0" devices="tripinfo_10100809.0 person_10100809.0" vType="bus" speedFactor="1.24" vaporized=""/>
    <tripinfo id="10101094.0" depart="25190.00" departLane="240561454_1" departPos="12.10" departSpeed="0.00" departDelay="0.00" arrival="26400.00" arrivalLane="34750079#2_1" arrivalPos="383.73" arrivalSpeed="8.07" duration="1210.00" routeLength="9245.41" waitingTime="22.00" waitingCount="11" stopTime="166.00" timeLoss="264.93" rerouteNo="0" devices="tripinfo_10101094.0 person_10101094.0" vType="bus" speedFactor="0.99" vaporized=""/>
    <tripinfo id="10100991.0" depart="23090.00" departLane="-370552765#0_1" departPos="12.10" departSpeed="0.00" departDelay="0.00" arrival="26470.00" arrivalLane="102868617#0_1" arrivalPos="91.46" arrivalSpeed="12.04" duration="3380.00" routeLength="17750.16" waitingTime="341.00" waitingCount="22" stopTime="874.00" timeLoss="858.49" rerouteNo="0" devices="tripinfo_10100991.0 person_10100991.0" vType="bus" speedFactor="1.05" vaporized=""/>
    <tripinfo id="10102117.0" depart="26210.00" departLane="325187141#0_1" departPos="5.63" departSpeed="0.00" departDelay="0.00" arrival="26582.00" arrivalLane="286130639#2_1" arrivalPos="1.93" arrivalSpeed="9.72" duration="372.00" routeLength="1518.01" waitingTime="35.00" waitingCount="5" stopTime="157.00" timeLoss="108.74" rerouteNo="0" devices="tripinfo_10102117.0 person_10102117.0" vType="bus" speedFactor="1.08" vaporized=""/>
    <tripinfo id="10101065.0" depart="24170.00" departLane="-102868617#0_1" departPos="12.10" departSpeed="0.00" departDelay="0.00" arrival="26678.00" arrivalLane="-370552766#1_1" arrivalPos="6.83" arrivalSpeed="6.77" duration="2508.00" routeLength="14609.51" waitingTime="300.00" waitingCount="24" stopTime="511.00" timeLoss="834.59" rerouteNo="0" devices="tripinfo_10101065.0 person_10101065.0" vType="bus" speedFactor="1.17" vaporized=""/>
    <tripinfo id="10180419.0" depart="26216.00" departLane="325187141#0_1" departPos="5.63" departSpeed="0.00" departDelay="6.00" arrival="26967.00" arrivalLane="67332189#3_1" arrivalPos="15.64" arrivalSpeed="0.80" duration="751.00" routeLength="6026.34" waitingTime="148.00" waitingCount="7" stopTime="72.00" timeLoss="297.10" rerouteNo="0" devices="tripinfo_10180419.0 person_10180419.0" vType="bus" speedFactor="1.11" vaporized=""/>
    <tripinfo id="10009847.0" depart="26390.00" departLane="-101368446#0_1" departPos="12.10" departSpeed="0.00" departDelay="0.00" arrival="27006.00" arrivalLane="325187141#1_1" arrivalPos="43.10" arrivalSpeed="3.66" duration="616.00" routeLength="3136.49" waitingTime="131.00" waitingCount="3" stopTime="156.00" timeLoss="227.69" rerouteNo="0" devices="tripinfo_10009847.0 person_10009847.0" vType="bus" speedFactor="1.05" vaporized=""/>
    <tripinfo id="10181037.0" depart="26690.00" departLane="159980917_1" departPos="8.56" departSpeed="0.00" departDelay="0.00" arrival="27101.00" arrivalLane="65547466_1" arrivalPos="99.72" arrivalSpeed="5.41" duration="411.00" routeLength="513.42" waitingTime="204.00" waitingCount="6" stopTime="20.00" timeLoss="287.26" rerouteNo="0" devices="tripinfo_10181037.0" vType="bus" speedFactor="0.93" vaporized=""/>
    <tripinfo id="10010717.0" depart="26030.00" departLane="-160011978#2_1" departPos="12.10" departSpeed="0.00" departDelay="0.00" arrival="27166.00" arrivalLane="124416783#1_1" arrivalPos="90.04" arrivalSpeed="12.77" duration="1136.00" routeLength="2676.70" waitingTime="351.00" waitingCount="13" stopTime="358.00" timeLoss="474.41" rerouteNo="0" devices="tripinfo_10010717.0 person_10010717.0" vType="bus" speedFactor="0.96" vaporized=""/>
    <tripinfo id="10010850.0" depart="26992.00" departLane="159980917_1" departPos="8.56" departSpeed="0.00" departDelay="2.00" arrival="27425.00" arrivalLane="65547466_1" arrivalPos="99.72" arrivalSpeed="5.08" duration="433.00" routeLength="513.42" waitingTime="214.00" waitingCount="8" stopTime="20.00" timeLoss="318.29" rerouteNo="0" devices="tripinfo_10010850.0" vType="bus" speedFactor="1.02" vaporized=""/>
    <tripinfo id="10454262.0" depart="27013.00" departLane="159980917_1" departPos="8.56" departSpeed="0.00" departDelay="23.00" arrival="27429.00" arrivalLane="65547466_1" arrivalPos="99.72" arrivalSpeed="7.56" duration="416.00" routeLength="513.42" waitingTime="202.00" waitingCount="8" stopTime="20.00" timeLoss="290.90" rerouteNo="0" devices="tripinfo_10454262.0" vType="bus" speedFactor="0.92" vaporized=""/>
    <tripinfo id="10010334.0" depart="27043.00" departLane="159980917_1" departPos="8.56" departSpeed="0.00" departDelay="53.00" arrival="27466.00" arrivalLane="65547466_1" arrivalPos="99.72" arrivalSpeed="4.69" duration="423.00" routeLength="513.42" waitingTime="192.00" waitingCount="9" stopTime="20.00" timeLoss="307.99" rerouteNo="0" devices="tripinfo_10010334.0" vType="bus" speedFactor="1.01" vaporized=""/>