<?xml version="1.0" encoding="UTF-8"?>

<!-- generated on 2022-03-10 10:16:34 by Eclipse SUMO GUI Version v1_11_0+0960-9a7789007a4
<configuration xmlns:xsi="http://www.w3.org/2001/XMLSchema-instance" xsi:noNamespaceSchemaLocation="http://sumo.dlr.de/xsd/sumoConfiguration.xsd">

    <input>
        <net-file value="../prt_infra/joined.net.xml"/>
        <route-files value="../demand/osm_activitygen_present_only_prt.rou.xml.gz,example_routes.xml,../osm/osm_activitygen.merged.rou.xml.gz,../demand/osm_activitygen.lkw.rou.xml"/>
        <additional-files value="../osm/pt_vtypes.xml,../osm/gtfs_publictransport.add.xml,../osm/gtfs_publictransport.rou.xml,../osm/osm_polygons.add.xml,../osm/defaults/basic.vType.xml,../osm/osm_complete_parking_areas.add.xml,../osm/osm_parking_rerouters.add.xml,../osm/osm_taxi_stands.add.xml,../osm/osm_taxi_rerouters.add.xml,../osm/induction_loops.add.xml,../osm/edge_lane_data.add.xml,../prt_infra/prt_poly.add.xml,../prt_infra/prt_stops_w_ALs.add.xml,../prt_infra/prt_fleet.add.xml"/>
    </input>

    <output>
        <output-prefix value="../osm/outputs/TIME_"/>
        <summary-output value="summary.out.xml"/>
        <person-summary-output value="person.summary.out.xml"/>
        <tripinfo-output value="tripinfo.out.xml"/>
        <tripinfo-output.write-unfinished value="false"/>
        <statistic-output value="statistics.out.xml"/>
    </output>

    <time>
        <begin value="0.0"/>
        <end value="86400.0"/>
        <step-length value="1"/>
    </time>

    <processing>
        <ignore-junction-blocker value="60"/>
        <ignore-route-errors value="true"/>
        <collision.action value="teleport"/>
        <time-to-teleport value="300"/>
        <max-depart-delay value="900"/>
        <time-to-impatience value="120"/>
        <parking.maneuver value="true"/>
        <pedestrian.model value="nonInteracting"/>
        <pedestrian.striping.stripe-width value="0.55"/>
        <pedestrian.striping.dawdling value="0.2"/>
        <pedestrian.striping.jamtime value="60"/>
        <pedestrian.striping.jamtime.crossing value="10"/>
        <pedestrian.striping.reserve-oncoming value="0.25"/>
        <pedestrian.striping.reserve-oncoming.junctions value="0.34"/>
        <ride.stop-tolerance value="25"/>
    </processing>

    <routing>
        <routing-algorithm value="astar"/>
        <persontrip.walkfactor value="0.75"/>
        <persontrip.transfer.car-walk value="parkingAreas,allJunctions"/>
        <persontrip.transfer.taxi-walk value="parkingAreas,allJunctions"/>
        <persontrip.transfer.walk-taxi value="parkingAreas,allJunctions"/>
        <persontrip.taxi.waiting-time value="300"/>
        <device.rerouting.probability value="1"/>
        <device.rerouting.period value="300"/>
        <device.rerouting.pre-period value="300"/>
        <device.rerouting.adaptation-interval value="10"/>
        <device.rerouting.threads value="4"/>
        <device.rerouting.bike-speeds value="true"/>
        <person-device.rerouting.probability value="1"/>
        <person-device.rerouting.period value="300"/>
    </routing>

    <report>
        <verbose value="true"/>
        <no-warnings value="false"/>
        <duration-log.disable value="false"/>
        <duration-log.statistics value="true"/>
        <no-step-log value="false"/>
    </report>

    <taxi_device>
        <device.taxi.dispatch-algorithm value="greedy"/>
        <device.taxi.dispatch-algorithm.output value="taxi.dispatch.out.xml"/>
        <device.taxi.dispatch-period value="60"/>
        <device.taxi.idle-algorithm value="stop"/>
        <device.taxi.idle-algorithm.output value="taxi.idle.out.xml"/>
    </taxi_device>

    <random_number>
        <seed value="42"/>
    </random_number>

    <gui_only>
        <gui-settings-file value="../osm/defaults/default-gui.xml"/>
        <tracker-interval value="1"/>
    </gui_only>

</configuration>
-->

<tripinfos xmlns:xsi="http://www.w3.org/2001/XMLSchema-instance" xsi:noNamespaceSchemaLocation="http://sumo.dlr.de/xsd/tripinfo_file.xsd">
    <personinfo id="4" depart="5.00" type="DEFAULT_PEDTYPE">
        <walk depart="5.00" departPos="0.00" arrival="21.00" arrivalPos="21.08" duration="16.00" routeLength="21.08" timeLoss="0.84" maxSpeed="1.39"/>
        <ride waitingTime="353.00" vehicle="on-demand.0" depart="374.00" arrival="439.00" arrivalPos="5.00" duration="65.00" routeLength="675.52" timeLoss="25.99"/>
    </personinfo>
    <tripinfo id="on-demand.5" depart="0.00" departLane="-157537321#0_1" departPos="5.10" departSpeed="0.00" departDelay="0.00" arrival="555.00" arrivalLane="Station_arrival_1" arrivalPos="10.89" arrivalSpeed="3.91" duration="555.00" routeLength="760.65" waitingTime="302.00" waitingCount="2" stopTime="169.00" timeLoss="327.56" rerouteNo="2" devices="tripinfo_on-demand.5 routing_on-demand.5 taxi_on-demand.5" vType="uber" speedFactor="1.06" vaporized="">
        <taxi customers="0" occupiedDistance="0.00" occupiedTime="0.00"/>
    </tripinfo>
    <personinfo id="131" depart="132.00" type="DEFAULT_PEDTYPE">
        <walk depart="132.00" departPos="0.00" arrival="149.00" arrivalPos="22.87" duration="17.00" routeLength="22.87" timeLoss="0.55" maxSpeed="1.39"/>
        <ride waitingTime="343.00" vehicle="on-demand.6" depart="492.00" arrival="623.00" arrivalPos="5.00" duration="131.00" routeLength="1493.11" timeLoss="34.12"/>
    </personinfo>
    <personinfo id="132" depart="133.00" type="DEFAULT_PEDTYPE">
        <walk depart="133.00" departPos="0.00" arrival="150.00" arrivalPos="22.87" duration="17.00" routeLength="22.87" timeLoss="0.55" maxSpeed="1.39"/>
        <ride waitingTime="350.00" vehicle="on-demand.7" depart="500.00" arrival="633.00" arrivalPos="5.00" duration="133.00" routeLength="1348.57" timeLoss="23.98"/>
    </personinfo>
    <personinfo id="160" depart="161.00" type="DEFAULT_PEDTYPE">
        <walk depart="161.00" departPos="0.00" arrival="172.00" arrivalPos="14.42" duration="11.00" routeLength="14.42" timeLoss="0.63" maxSpeed="1.39"/>
        <ride waitingTime="328.00" vehicle="on-demand.9" depart="500.00" arrival="633.00" arrivalPos="5.00" duration="133.00" routeLength="1497.60" timeLoss="31.39"/>
    </personinfo>
    <personinfo id="176" depart="177.00" type="DEFAULT_PEDTYPE">
        <walk depart="177.00" departPos="0.00" arrival="193.00" arrivalPos="21.08" duration="16.00" routeLength="21.08" timeLoss="0.84" maxSpeed="1.39"/>
        <ride waitingTime="365.00" vehicle="on-demand.11" depart="558.00" arrival="643.00" arrivalPos="5.00" duration="85.00" routeLength="679.52" timeLoss="29.83"/>
    </personinfo>
    <personinfo id="236" depart="237.00" type="DEFAULT_PEDTYPE">
        <walk depart="237.00" departPos="0.00" arrival="253.00" arrivalPos="21.08" duration="16.00" routeLength="21.08" timeLoss="0.84" maxSpeed="1.39"/>
        <ride waitingTime="358.00" vehicle="on-demand.15" depart="611.00" arrival="681.00" arrivalPos="5.00" duration="70.00" routeLength="677.92" timeLoss="25.35"/>
    </personinfo>
    <personinfo id="22" depart="23.00" type="DEFAULT_PEDTYPE">
        <walk depart="23.00" departPos="0.00" arrival="39.00" arrivalPos="21.08" duration="16.00" routeLength="21.08" timeLoss="0.84" maxSpeed="1.39"/>
        <ride waitingTime="346.00" vehicle="on-demand.1" depart="385.00" arrival="683.00" arrivalPos="5.00" duration="298.00" routeLength="3097.52" timeLoss="67.27"/>
    </personinfo>
    <tripinfo id="on-demand.12" depart="0.00" departLane="-370552773_1" departPos="5.10" departSpeed="0.00" departDelay="0.00" arrival="684.00" arrivalLane="Station_arrival_1" arrivalPos="10.89" arrivalSpeed="5.27" duration="684.00" routeLength="806.50" waitingTime="303.00" waitingCount="2" stopTime="287.00" timeLoss="333.99" rerouteNo="2" devices="tripinfo_on-demand.12 routing_on-demand.12 taxi_on-demand.12" vType="uber" speedFactor="0.94" vaporized="">
        <taxi customers="0" occupiedDistance="0.00" occupiedTime="0.00"/>
    </tripinfo>
    <tripinfo id="on-demand.8" depart="0.00" departLane="151585860#4_1" departPos="5.10" departSpeed="0.00" departDelay="0.00" arrival="687.00" arrivalLane="Hotel_arrival_1" arrivalPos="13.51" arrivalSpeed="4.81" duration="687.00" routeLength="1409.93" waitingTime="305.00" waitingCount="2" stopTime="233.00" timeLoss="329.21" rerouteNo="2" devices="tripinfo_on-demand.8 routing_on-demand.8 taxi_on-demand.8" vType="uber" speedFactor="0.86" vaporized="">
        <taxi customers="0" occupiedDistance="0.00" occupiedTime="0.00"/>
    </tripinfo>
    <tripinfo id="on-demand.13" depart="0.00" departLane="127435985_0" departPos="5.10" departSpeed="0.00" departDelay="0.00" arrival="694.00" arrivalLane="Station_arrival_1" arrivalPos="10.89" arrivalSpeed="5.79" duration="694.00" routeLength="982.56" waitingTime="304.00" waitingCount="2" stopTime="270.00" timeLoss="337.13" rerouteNo="2" devices="tripinfo_on-demand.13 routing_on-demand.13 taxi_on-demand.13" vType="taxi" speedFactor="0.88" vaporized="">
        <taxi customers="0" occupiedDistance="0.00" occupiedTime="0.00"/>
    </tripinfo>
    <personinfo id="250" depart="251.00" type="DEFAULT_PEDTYPE">
        <walk depart="251.00" departPos="0.00" arrival="267.00" arrivalPos="21.08" duration="16.00" routeLength="21.08" timeLoss="0.84" maxSpeed="1.39"/>
        <ride waitingTime="355.00" vehicle="on-demand.16" depart="622.00" arrival="702.00" arrivalPos="5.00" duration="80.00" routeLength="678.72" timeLoss="24.97"/>
    </personinfo>
    <personinfo id="100" depart="101.00" type="DEFAULT_PEDTYPE">
        <walk depart="101.00" departPos="0.00" arrival="112.00" arrivalPos="14.42" duration="11.00" routeLength="14.42" timeLoss="0.63" maxSpeed="1.39"/>
        <ride waitingTime="321.00" vehicle="on-demand.4" depart="433.00" arrival="728.00" arrivalPos="5.00" duration="295.00" routeLength="2884.15" timeLoss="54.51"/>
    </personinfo>
    <personinfo id="201" depart="202.00" type="DEFAULT_PEDTYPE">
        <walk depart="202.00" departPos="0.00" arrival="218.00" arrivalPos="21.08" duration="16.00" routeLength="21.08" timeLoss="0.84" maxSpeed="1.39"/>
        <ride waitingTime="343.00" vehicle="on-demand.14" depart="561.00" arrival="746.00" arrivalPos="5.00" duration="185.00" routeLength="1565.63" timeLoss="34.70"/>
    </personinfo>
    <personinfo id="55" depart="56.00" type="DEFAULT_PEDTYPE">
        <walk depart="56.00" departPos="0.00" arrival="72.00" arrivalPos="21.08" duration="16.00" routeLength="21.08" timeLoss="0.84" maxSpeed="1.39"/>
        <ride waitingTime="370.00" vehicle="on-demand.2" depart="442.00" arrival="774.00" arrivalPos="5.00" duration="332.00" routeLength="3098.32" timeLoss="66.15"/>
    </personinfo>
    <personinfo id="84" depart="85.00" type="DEFAULT_PEDTYPE">
        <walk depart="85.00" departPos="0.00" arrival="101.00" arrivalPos="21.08" duration="16.00" routeLength="21.08" timeLoss="0.84" maxSpeed="1.39"/>
        <ride waitingTime="344.00" vehicle="on-demand.3" depart="445.00" arrival="784.00" arrivalPos="5.00" duration="339.00" routeLength="3099.12" timeLoss="119.73"/>
    </personinfo>
    <personinfo id="167" depart="168.00" type="DEFAULT_PEDTYPE">
        <walk depart="168.00" departPos="0.00" arrival="179.00" arrivalPos="14.42" duration="11.00" routeLength="14.42" timeLoss="0.63" maxSpeed="1.39"/>
        <ride waitingTime="324.00" vehicle="on-demand.10" depart="503.00" arrival="805.00" arrivalPos="5.00" duration="302.00" routeLength="3031.09" timeLoss="63.91"/>
    </personinfo>
    <tripinfo id="10454276.0" depart="1790.00" departLane="325187141#1_1" departPos="12.10" departSpeed="0.00" departDelay="0.00" arrival="1879.00" arrivalLane="720137340_1" arrivalPos="3.64" arrivalSpeed="2.16" duration="89.00" routeLength="404.57" waitingTime="2.00" waitingCount="2" stopTime="20.00" timeLoss="36.66" rerouteNo="0" devices="tripinfo_10454276.0" vType="bus" speedFactor="1.07" vaporized=""/>
    <tripinfo id="10010282.0" depart="1796.00" departLane="325187141#1_1" departPos="12.10" departSpeed="0.00" departDelay="6.00" arrival="1903.00" arrivalLane="720137340_1" arrivalPos="3.64" arrivalSpeed="3.02" duration="107.00" routeLength="404.57" waitingTime="11.00" waitingCount="3" stopTime="20.00" timeLoss="53.91" rerouteNo="0" devices="tripinfo_10010282.0" vType="bus" speedFactor="1.06" vaporized=""/>
    <tripinfo id="10180339.0" depart="18410.00" departLane="325187141#0_1" departPos="5.63" departSpeed="0.00" departDelay="0.00" arrival="19138.00" arrivalLane="67332189#3_1" arrivalPos="15.64" arrivalSpeed="0.84" duration="728.00" routeLength="6026.35" waitingTime="22.00" waitingCount="5" stopTime="179.00" timeLoss="121.13" rerouteNo="0" devices="tripinfo_10180339.0" vType="bus" speedFactor="0.99" vaporized=""/>
    <tripinfo id="10102128.0" depart="19010.00" departLane="325187141#0_1" departPos="5.63" departSpeed="0.00" departDelay="0.00" arrival="19382.00" arrivalLane="286130639#2_1" arrivalPos="1.93" arrivalSpeed="9.93" duration="372.00" routeLength="1518.01" waitingTime="11.00" waitingCount="3" stopTime="182.00" timeLoss="85.10" rerouteNo="0" devices="tripinfo_10102128.0" vType="bus" speedFactor="1.10" vaporized=""/>
    <tripinfo id="10180489.0" depart="18650.00" departLane="-67332189#3_1" departPos="12.10" departSpeed="0.00" departDelay="0.00" arrival="19497.00" arrivalLane="65547466_1" arrivalPos="99.72" arrivalSpeed="7.23" duration="847.00" routeLength="6374.57" waitingTime="33.00" waitingCount="4" stopTime="144.00" timeLoss="150.55" rerouteNo="0" devices="tripinfo_10180489.0" vType="bus" speedFactor="0.93" vaporized=""/>
    <tripinfo id="10454283.0" depart="19790.00" departLane="325187141#1_1" departPos="12.10" departSpeed="0.00" departDelay="0.00" arrival="19882.00" arrivalLane="720137340_1" arrivalPos="3.64" arrivalSpeed="2.60" duration="92.00" routeLength="404.57" waitingTime="5.00" waitingCount="2" stopTime="20.00" timeLoss="38.09" rerouteNo="0" devices="tripinfo_10454283.0" vType="bus" speedFactor="1.02" vaporized=""/>
    <tripinfo id="10010322.0" depart="19796.00" departLane="325187141#1_1" departPos="12.10" departSpeed="0.00" departDelay="6.00" arrival="19916.00" arrivalLane="720137340_1" arrivalPos="3.64" arrivalSpeed="3.00" duration="120.00" routeLength="404.57" waitingTime="16.00" waitingCount="4" stopTime="20.00" timeLoss="62.34" rerouteNo="0" devices="tripinfo_10010322.0" vType="bus" speedFactor="0.92" vaporized=""/>
    <tripinfo id="10454252.0" depart="19790.00" departLane="159980917_1" departPos="8.56" departSpeed="0.00" departDelay="0.00" arrival="19974.00" arrivalLane="65547466_1" arrivalPos="99.72" arrivalSpeed="6.51" duration="184.00" routeLength="513.42" waitingTime="7.00" waitingCount="3" stopTime="20.00" timeLoss="44.33" rerouteNo="0" devices="tripinfo_10454252.0" vType="bus" speedFactor="0.81" vaporized=""/>
    <tripinfo id="10010336.0" depart="19806.00" departLane="159980917_1" departPos="8.56" departSpeed="0.00" departDelay="16.00" arrival="19984.00" arrivalLane="65547466_1" arrivalPos="99.72" arrivalSpeed="8.34" duration="178.00" routeLength="513.42" waitingTime="7.00" waitingCount="3" stopTime="20.00" timeLoss="52.49" rerouteNo="0" devices="tripinfo_10010336.0" vType="bus" speedFactor="0.92" vaporized=""/>
    <tripinfo id="10011008.0" depart="19190.00" departLane="325187141#0_1" departPos="5.63" departSpeed="0.00" departDelay="0.00" arrival="20203.00" arrivalLane="124416773#0_1" arrivalPos="183.14" arrivalSpeed="15.37" duration="1013.00" routeLength="7371.60" waitingTime="30.00" waitingCount="8" stopTime="209.00" timeLoss="225.22" rerouteNo="0" devices="tripinfo_10011008.0" vType="bus" speedFactor="1.13" vaporized=""/>
    <tripinfo id="10009326.0" depart="20450.00" departLane="-67332189#3_1" departPos="12.10" departSpeed="0.00" departDelay="0.00" arrival="21296.00" arrivalLane="65547466_1" arrivalPos="99.72" arrivalSpeed="6.79" duration="846.00" routeLength="6374.57" waitingTime="22.00" waitingCount="5" stopTime="211.00" timeLoss="156.64" rerouteNo="0" devices="tripinfo_10009326.0" vType="bus" speedFactor="1.08" vaporized=""/>
    <tripinfo id="10180431.0" depart="20810.00" departLane="325187141#0_1" departPos="5.63" departSpeed="0.00" departDelay="0.00" arrival="21571.00" arrivalLane="67332189#3_1" arrivalPos="15.64" arrivalSpeed="1.01" duration="761.00" routeLength="6026.35" waitingTime="11.00" waitingCount="4" stopTime="217.00" timeLoss="121.99" rerouteNo="0" devices="tripinfo_10180431.0" vType="bus" speedFactor="1.01" vaporized=""/>
    <tripinfo id="10010920.0" depart="20810.00" departLane="-127529207#5_1" departPos="12.10" departSpeed="0.00" departDelay="0.00" arrival="21603.00" arrivalLane="720137343#0_1" arrivalPos="40.26" arrivalSpeed="11.23" duration="793.00" routeLength="5256.46" waitingTime="58.00" waitingCount="8" stopTime="144.00" timeLoss="275.97" rerouteNo="0" devices="tripinfo_10010920.0" vType="bus" speedFactor="0.99" vaporized=""/>
    <tripinfo id="10010836.0" depart="21170.00" departLane="241913077#2_1" departPos="12.10" departSpeed="0.00" departDelay="0.00" arrival="21897.00" arrivalLane="65547466_1" arrivalPos="99.72" arrivalSpeed="6.68" duration="727.00" routeLength="5234.84" waitingTime="74.00" waitingCount="7" stopTime="117.00" timeLoss="248.33" rerouteNo="0" devices="tripinfo_10010836.0" vType="bus" speedFactor="1.13" vaporized=""/>
    <tripinfo id="10010781.0" depart="20090.00" departLane="104668977#0_1" departPos="12.10" departSpeed="0.00" departDelay="0.00" arrival="21975.00" arrivalLane="-241913077#2_1" arrivalPos="221.64" arrivalSpeed="12.12" duration="1885.00" routeLength="16367.61" waitingTime="70.00" waitingCount="8" stopTime="169.00" timeLoss="339.76" rerouteNo="0" devices="tripinfo_10010781.0" vType="bus" speedFactor="0.89" vaporized=""/>
    <tripinfo id="10009866.0" depart="21590.00" departLane="124416778#0_1" departPos="12.10" departSpeed="0.00" departDelay="0.00" arrival="22150.00" arrivalLane="101368444_1" arrivalPos="87.70" arrivalSpeed="11.97" duration="560.00" routeLength="3718.52" waitingTime="1.00" waitingCount="1" stopTime="70.00" timeLoss="103.79" rerouteNo="0" devices="tripinfo_10009866.0" vType="bus" speedFactor="0.88" vaporized=""/>
    <tripinfo id="10009294.0" depart="21590.00" departLane="325187141#0_1" departPos="5.63" departSpeed="0.00" departDelay="0.00" arrival="22317.00" arrivalLane="67332189#3_1" arrivalPos="15.64" arrivalSpeed="0.86" duration="727.00" routeLength="6026.35" waitingTime="26.00" waitingCount="7" stopTime="163.00" timeLoss="136.12" rerouteNo="0" devices="tripinfo_10009294.0" vType="bus" speedFactor="0.99" vaporized=""/>
    <tripinfo id="10100715.0" depart="22250.00" departLane="-159950182#1_1" departPos="12.10" departSpeed="0.00" departDelay="0.00" arrival="22513.00" arrivalLane="-172189511#9_1" arrivalPos="30.56" arrivalSpeed="9.57" duration="263.00" routeLength="1650.80" waitingTime="0.00" waitingCount="0" stopTime="40.00" timeLoss="50.36" rerouteNo="0" devices="tripinfo_10100715.0" vType="bus" speedFactor="1.16" vaporized=""/>
    <tripinfo id="10100829.0" depart="22310.00" departLane="200313022#3_1" departPos="12.10" departSpeed="0.00" departDelay="0.00" arrival="22524.00" arrivalLane="159818666#4_1" arrivalPos="79.65" arrivalSpeed="8.63" duration="214.00" routeLength="1125.77" waitingTime="0.00" waitingCount="0" stopTime="30.00" timeLoss="47.53" rerouteNo="0" devices="tripinfo_10100829.0" vType="bus" speedFactor="1.10" vaporized=""/>
    <tripinfo id="10101080.0" depart="22250.00" departLane="291223659#2_1" departPos="8.20" departSpeed="0.00" departDelay="0.00" arrival="22773.00" arrivalLane="34750079#2_1" arrivalPos="383.73" arrivalSpeed="8.08" duration="523.00" routeLength="3928.73" waitingTime="2.00" waitingCount="2" stopTime="66.00" timeLoss="103.39" rerouteNo="0" devices="tripinfo_10101080.0" vType="bus" speedFactor="1.07" vaporized=""/>
    <tripinfo id="10102102.0" depart="22610.00" departLane="325187141#0_1" departPos="5.63" departSpeed="0.00" departDelay="0.00" arrival="22980.00" arrivalLane="286130639#2_1" arrivalPos="1.93" arrivalSpeed="10.65" duration="370.00" routeLength="1518.01" waitingTime="13.00" waitingCount="4" stopTime="165.00" timeLoss="94.97" rerouteNo="0" devices="tripinfo_10102102.0 person_10102102.0" vType="bus" speedFactor="1.04" vaporized=""/>
    <tripinfo id="10009949.0" depart="23090.00" departLane="159980917_1" departPos="8.56" departSpeed="0.00" departDelay="0.00" arrival="23248.00" arrivalLane="65547466_1" arrivalPos="99.72" arrivalSpeed="6.63" duration="158.00" routeLength="513.42" waitingTime="1.00" waitingCount="1" stopTime="20.00" timeLoss="29.96" rerouteNo="0" devices="tripinfo_10009949.0" vType="bus" speedFactor="0.89" vaporized=""/>
    <tripinfo id="10010941.0" depart="22616.00" departLane="325187141#0_1" departPos="5.63" departSpeed="0.00" departDelay="6.00" arrival="23388.00" arrivalLane="127529207#2_1" arrivalPos="13.11" arrivalSpeed="7.22" duration="772.00" routeLength="4580.47" waitingTime="43.00" waitingCount="11" stopTime="151.00" timeLoss="233.65" rerouteNo="0" devices="tripinfo_10010941.0" vType="bus" speedFactor="1.02" vaporized=""/>
    <tripinfo id="10009851.0" depart="22790.00" departLane="-101368446#0_1" departPos="12.10" departSpeed="0.00" departDelay="0.00" arrival="23457.00" arrivalLane="720137340_1" arrivalPos="3.64" arrivalSpeed="2.40" duration="667.00" routeLength="3510.07" waitingTime="199.00" waitingCount="6" stopTime="70.00" timeLoss="343.20" rerouteNo="0" devices="tripinfo_10009851.0 person_10009851.0" vType="bus" speedFactor="1.08" vaporized=""/>
    <tripinfo id="10010820.0" depart="22490.00" departLane="325187141#0_1" departPos="5.63" departSpeed="0.00" departDelay="0.00" arrival="23465.00" arrivalLane="-241913077#2_1" arrivalPos="221.64" arrivalSpeed="14.99" duration="975.00" routeLength="8309.23" waitingTime="60.00" waitingCount="8" stopTime="166.00" timeLoss="271.02" rerouteNo="0" devices="tripinfo_10010820.0 person_10010820.0" vType="bus" speedFactor="1.09" vaporized=""/>
    <tripinfo id="10010870.0" depart="23390.00" departLane="325187141#1_1" departPos="12.10" departSpeed="0.00" departDelay="0.00" arrival="23522.00" arrivalLane="720137340_1" arrivalPos="3.64" arrivalSpeed="2.48" duration="132.00" routeLength="404.57" waitingTime="27.00" waitingCount="3" stopTime="20.00" timeLoss="81.25" rerouteNo="0" devices="tripinfo_10010870.0" vType="bus" speedFactor="1.13" vaporized=""/>
    <tripinfo id="10454261.0" depart="23390.00" departLane="159980917_1" departPos="8.56" departSpeed="0.00" departDelay="0.00" arrival="23547.00" arrivalLane="65547466_1" arrivalPos="99.72" arrivalSpeed="7.00" duration="157.00" routeLength="513.42" waitingTime="1.00" waitingCount="1" stopTime="20.00" timeLoss="30.15" rerouteNo="0" devices="tripinfo_10454261.0" vType="bus" speedFactor="0.90" vaporized=""/>
    <tripinfo id="10454292.0" depart="23396.00" departLane="325187141#1_1" departPos="12.10" departSpeed="0.00" departDelay="6.00" arrival="23556.00" arrivalLane="720137340_1" arrivalPos="3.64" arrivalSpeed="3.10" duration="160.00" routeLength="404.57" waitingTime="35.00" waitingCount="7" stopTime="20.00" timeLoss="105.14" rerouteNo="0" devices="tripinfo_10454292.0" vType="bus" speedFactor="0.99" vaporized=""/>
    <tripinfo id="10010337.0" depart="23406.00" departLane="159980917_1" departPos="8.56" departSpeed="0.00" departDelay="16.00" arrival="23557.00" arrivalLane="65547466_1" arrivalPos="99.72" arrivalSpeed="8.09" duration="151.00" routeLength="513.42" waitingTime="2.00" waitingCount="2" stopTime="20.00" timeLoss="50.60" rerouteNo="0" devices="tripinfo_10010337.0" vType="bus" speedFactor="1.21" vaporized=""/>
    <tripinfo id="10010313.0" depart="23417.00" departLane="325187141#1_1" departPos="12.10" departSpeed="0.00" departDelay="27.00" arrival="23580.00" arrivalLane="720137340_1" arrivalPos="3.64" arrivalSpeed="2.31" duration="163.00" routeLength="404.57" waitingTime="44.00" waitingCount="6" stopTime="20.00" timeLoss="101.60" rerouteNo="0" devices="tripinfo_10010313.0" vType="bus" speedFactor="0.84" vaporized=""/>
    <tripinfo id="10101128.0" depart="22790.00" departLane="34750079#2_1" departPos="12.10" departSpeed="0.00" departDelay="0.00" arrival="23990.00" arrivalLane="240561428#1_1" arrivalPos="2.80" arrivalSpeed="1.18" duration="1200.00" routeLength="6711.72" waitingTime="40.00" waitingCount="10" stopTime="300.00" timeLoss="238.36" rerouteNo="0" devices="tripinfo_10101128.0 person_10101128.0" vType="bus" speedFactor="0.88" vaporized=""/>
    <tripinfo id="10180495.0" depart="23150.00" departLane="-67332189#3_1" departPos="12.10" departSpeed="0.00" departDelay="0.00" arrival="23996.00" arrivalLane="65547466_1" arrivalPos="99.72" arrivalSpeed="6.39" duration="846.00" routeLength="6374.57" waitingTime="12.00" waitingCount="5" stopTime="248.00" timeLoss="139.38" rerouteNo="0" devices="tripinfo_10180495.0 person_10180495.0" vType="bus" speedFactor="1.12" vaporized=""/>
    <tripinfo id="10102089.0" depart="23690.00" departLane="102344315_1" departPos="12.10" departSpeed="0.00" departDelay="0.00" arrival="24000.00" arrivalLane="65547466_1" arrivalPos="99.72" arrivalSpeed="9.40" duration="310.00" routeLength="1202.10" waitingTime="3.00" waitingCount="2" stopTime="83.00" timeLoss="68.90" rerouteNo="0" devices="tripinfo_10102089.0 person_10102089.0" vType="bus" speedFactor="0.92" vaporized=""/>
    <tripinfo id="10100883.0" depart="22370.00" departLane="105592740#6_1" departPos="12.10" departSpeed="0.00" departDelay="0.00" arrival="24257.00" arrivalLane="-30610461#8_1" arrivalPos="44.79" arrivalSpeed="7.93" duration="1887.00" routeLength="10565.47" waitingTime="96.00" waitingCount="17" stopTime="383.00" timeLoss="482.01" rerouteNo="0" devices="tripinfo_10100883.0 person_10100883.0" vType="bus" speedFactor="0.97" vaporized=""/>
