<?xml version="1.0" encoding="UTF-8"?>

<!-- generated on 2022-03-11 13:18:32 by Eclipse SUMO GUI Version v1_11_0+0960-9a7789007a4
<configuration xmlns:xsi="http://www.w3.org/2001/XMLSchema-instance" xsi:noNamespaceSchemaLocation="http://sumo.dlr.de/xsd/sumoConfiguration.xsd">

    <input>
        <net-file value="../prt_infra/joined.net.xml"/>
        <route-files value="../demand/osm_activitygen_present_only_prt.rou.xml.gz,example_routes.xml,../osm/osm_activitygen.merged.rou.xml.gz,../demand/osm_activitygen.lkw.rou.xml"/>
        <additional-files value="../osm/pt_vtypes.xml,../osm/gtfs_publictransport.add.xml,../osm/gtfs_publictransport.rou.xml,../osm/osm_polygons.add.xml,../osm/defaults/basic.vType.xml,../osm/osm_complete_parking_areas.add.xml,../osm/osm_parking_rerouters.add.xml,../osm/osm_taxi_stands.add.xml,../osm/osm_taxi_rerouters.add.xml,../osm/induction_loops.add.xml,../osm/edge_lane_data.add.xml,../prt_infra/prt_poly.add.xml,../prt_infra/prt_stops_w_ALs.add.xml,../prt_infra/prt_fleet.add.xml"/>
    </input>

    <output>
        <output-prefix value="../osm/outputs/TIME_"/>
        <summary-output value="summary.out.xml"/>
        <person-summary-output value="person.summary.out.xml"/>
        <tripinfo-output value="tripinfo.out.xml"/>
        <tripinfo-output.write-unfinished value="false"/>
        <statistic-output value="statistics.out.xml"/>
    </output>

    <time>
        <begin value="0.0"/>
        <end value="86400.0"/>
        <step-length value="1"/>
    </time>

    <processing>
        <ignore-junction-blocker value="60"/>
        <ignore-route-errors value="true"/>
        <collision.action value="teleport"/>
        <time-to-teleport value="300"/>
        <max-depart-delay value="900"/>
        <time-to-impatience value="120"/>
        <parking.maneuver value="true"/>
        <pedestrian.model value="nonInteracting"/>
        <pedestrian.striping.stripe-width value="0.55"/>
        <pedestrian.striping.dawdling value="0.2"/>
        <pedestrian.striping.jamtime value="60"/>
        <pedestrian.striping.jamtime.crossing value="10"/>
        <pedestrian.striping.reserve-oncoming value="0.25"/>
        <pedestrian.striping.reserve-oncoming.junctions value="0.34"/>
        <ride.stop-tolerance value="25"/>
    </processing>

    <routing>
        <routing-algorithm value="astar"/>
        <persontrip.walkfactor value="0.75"/>
        <persontrip.transfer.car-walk value="parkingAreas,allJunctions"/>
        <persontrip.transfer.taxi-walk value="parkingAreas,allJunctions"/>
        <persontrip.transfer.walk-taxi value="parkingAreas,allJunctions"/>
        <persontrip.taxi.waiting-time value="300"/>
        <device.rerouting.probability value="1"/>
        <device.rerouting.period value="300"/>
        <device.rerouting.pre-period value="300"/>
        <device.rerouting.adaptation-interval value="10"/>
        <device.rerouting.threads value="4"/>
        <device.rerouting.bike-speeds value="true"/>
        <person-device.rerouting.probability value="1"/>
        <person-device.rerouting.period value="300"/>
    </routing>

    <report>
        <verbose value="true"/>
        <no-warnings value="false"/>
        <duration-log.disable value="false"/>
        <duration-log.statistics value="true"/>
        <no-step-log value="false"/>
    </report>

    <taxi_device>
        <device.taxi.dispatch-algorithm value="greedy"/>
        <device.taxi.dispatch-algorithm.output value="taxi.dispatch.out.xml"/>
        <device.taxi.dispatch-period value="60"/>
        <device.taxi.idle-algorithm value="stop"/>
        <device.taxi.idle-algorithm.output value="taxi.idle.out.xml"/>
    </taxi_device>

    <random_number>
        <seed value="42"/>
    </random_number>

    <gui_only>
        <gui-settings-file value="../osm/defaults/default-gui.xml"/>
        <tracker-interval value="1"/>
    </gui_only>

</configuration>
-->

<tripinfos xmlns:xsi="http://www.w3.org/2001/XMLSchema-instance" xsi:noNamespaceSchemaLocation="http://sumo.dlr.de/xsd/tripinfo_file.xsd">
    <personinfo id="4" depart="5.00" type="DEFAULT_PEDTYPE">
        <walk depart="5.00" departPos="0.00" arrival="21.00" arrivalPos="21.08" duration="16.00" routeLength="21.08" timeLoss="0.84" maxSpeed="1.39"/>
        <ride waitingTime="353.00" vehicle="on-demand.0" depart="374.00" arrival="439.00" arrivalPos="5.00" duration="65.00" routeLength="675.52" timeLoss="25.99"/>
    </personinfo>
    <tripinfo id="on-demand.5" depart="0.00" departLane="-157537321#0_1" departPos="5.10" departSpeed="0.00" departDelay="0.00" arrival="555.00" arrivalLane="Station_arrival_1" arrivalPos="10.89" arrivalSpeed="3.91" duration="555.00" routeLength="760.65" waitingTime="302.00" waitingCount="2" stopTime="169.00" timeLoss="327.56" rerouteNo="2" devices="tripinfo_on-demand.5 routing_on-demand.5 taxi_on-demand.5" vType="uber" speedFactor="1.06" vaporized="">
        <taxi customers="0" occupiedDistance="0.00" occupiedTime="0.00"/>
    </tripinfo>
    <personinfo id="131" depart="132.00" type="DEFAULT_PEDTYPE">
        <walk depart="132.00" departPos="0.00" arrival="149.00" arrivalPos="22.87" duration="17.00" routeLength="22.87" timeLoss="0.55" maxSpeed="1.39"/>
        <ride waitingTime="343.00" vehicle="on-demand.6" depart="492.00" arrival="623.00" arrivalPos="5.00" duration="131.00" routeLength="1493.11" timeLoss="34.12"/>
    </personinfo>
    <personinfo id="132" depart="133.00" type="DEFAULT_PEDTYPE">
        <walk depart="133.00" departPos="0.00" arrival="150.00" arrivalPos="22.87" duration="17.00" routeLength="22.87" timeLoss="0.55" maxSpeed="1.39"/>
        <ride waitingTime="350.00" vehicle="on-demand.7" depart="500.00" arrival="633.00" arrivalPos="5.00" duration="133.00" routeLength="1348.57" timeLoss="23.98"/>
    </personinfo>
    <personinfo id="160" depart="161.00" type="DEFAULT_PEDTYPE">
        <walk depart="161.00" departPos="0.00" arrival="172.00" arrivalPos="14.42" duration="11.00" routeLength="14.42" timeLoss="0.63" maxSpeed="1.39"/>
        <ride waitingTime="328.00" vehicle="on-demand.9" depart="500.00" arrival="633.00" arrivalPos="5.00" duration="133.00" routeLength="1497.60" timeLoss="31.39"/>
    </personinfo>
    <personinfo id="176" depart="177.00" type="DEFAULT_PEDTYPE">
        <walk depart="177.00" departPos="0.00" arrival="193.00" arrivalPos="21.08" duration="16.00" routeLength="21.08" timeLoss="0.84" maxSpeed="1.39"/>
        <ride waitingTime="365.00" vehicle="on-demand.11" depart="558.00" arrival="643.00" arrivalPos="5.00" duration="85.00" routeLength="679.52" timeLoss="29.83"/>
    </personinfo>
    <personinfo id="236" depart="237.00" type="DEFAULT_PEDTYPE">
        <walk depart="237.00" departPos="0.00" arrival="253.00" arrivalPos="21.08" duration="16.00" routeLength="21.08" timeLoss="0.84" maxSpeed="1.39"/>
        <ride waitingTime="358.00" vehicle="on-demand.15" depart="611.00" arrival="681.00" arrivalPos="5.00" duration="70.00" routeLength="677.92" timeLoss="25.35"/>
    </personinfo>
    <personinfo id="22" depart="23.00" type="DEFAULT_PEDTYPE">
        <walk depart="23.00" departPos="0.00" arrival="39.00" arrivalPos="21.08" duration="16.00" routeLength="21.08" timeLoss="0.84" maxSpeed="1.39"/>
        <ride waitingTime="346.00" vehicle="on-demand.1" depart="385.00" arrival="683.00" arrivalPos="5.00" duration="298.00" routeLength="3097.52" timeLoss="67.27"/>
    </personinfo>
    <tripinfo id="on-demand.12" depart="0.00" departLane="-370552773_1" departPos="5.10" departSpeed="0.00" departDelay="0.00" arrival="684.00" arrivalLane="Station_arrival_1" arrivalPos="10.89" arrivalSpeed="5.27" duration="684.00" routeLength="806.50" waitingTime="303.00" waitingCount="2" stopTime="287.00" timeLoss="333.99" rerouteNo="2" devices="tripinfo_on-demand.12 routing_on-demand.12 taxi_on-demand.12" vType="uber" speedFactor="0.94" vaporized="">
        <taxi customers="0" occupiedDistance="0.00" occupiedTime="0.00"/>
    </tripinfo>
    <tripinfo id="on-demand.8" depart="0.00" departLane="151585860#4_1" departPos="5.10" departSpeed="0.00" departDelay="0.00" arrival="687.00" arrivalLane="Hotel_arrival_1" arrivalPos="13.51" arrivalSpeed="4.81" duration="687.00" routeLength="1409.93" waitingTime="305.00" waitingCount="2" stopTime="233.00" timeLoss="329.21" rerouteNo="2" devices="tripinfo_on-demand.8 routing_on-demand.8 taxi_on-demand.8" vType="uber" speedFactor="0.86" vaporized="">
        <taxi customers="0" occupiedDistance="0.00" occupiedTime="0.00"/>
    </tripinfo>
    <tripinfo id="on-demand.13" depart="0.00" departLane="127435985_0" departPos="5.10" departSpeed="0.00" departDelay="0.00" arrival="694.00" arrivalLane="Station_arrival_1" arrivalPos="10.89" arrivalSpeed="5.79" duration="694.00" routeLength="982.56" waitingTime="304.00" waitingCount="2" stopTime="270.00" timeLoss="337.13" rerouteNo="2" devices="tripinfo_on-demand.13 routing_on-demand.13 taxi_on-demand.13" vType="taxi" speedFactor="0.88" vaporized="">
        <taxi customers="0" occupiedDistance="0.00" occupiedTime="0.00"/>
    </tripinfo>
    <personinfo id="250" depart="251.00" type="DEFAULT_PEDTYPE">
        <walk depart="251.00" departPos="0.00" arrival="267.00" arrivalPos="21.08" duration="16.00" routeLength="21.08" timeLoss="0.84" maxSpeed="1.39"/>
        <ride waitingTime="355.00" vehicle="on-demand.16" depart="622.00" arrival="702.00" arrivalPos="5.00" duration="80.00" routeLength="678.72" timeLoss="24.97"/>
    </personinfo>
    <personinfo id="100" depart="101.00" type="DEFAULT_PEDTYPE">
        <walk depart="101.00" departPos="0.00" arrival="112.00" arrivalPos="14.42" duration="11.00" routeLength="14.42" timeLoss="0.63" maxSpeed="1.39"/>
        <ride waitingTime="321.00" vehicle="on-demand.4" depart="433.00" arrival="728.00" arrivalPos="5.00" duration="295.00" routeLength="2884.15" timeLoss="54.51"/>
    </personinfo>
    <personinfo id="201" depart="202.00" type="DEFAULT_PEDTYPE">
        <walk depart="202.00" departPos="0.00" arrival="218.00" arrivalPos="21.08" duration="16.00" routeLength="21.08" timeLoss="0.84" maxSpeed="1.39"/>
        <ride waitingTime="343.00" vehicle="on-demand.14" depart="561.00" arrival="746.00" arrivalPos="5.00" duration="185.00" routeLength="1565.63" timeLoss="34.70"/>
    </personinfo>
    <personinfo id="55" depart="56.00" type="DEFAULT_PEDTYPE">
        <walk depart="56.00" departPos="0.00" arrival="72.00" arrivalPos="21.08" duration="16.00" routeLength="21.08" timeLoss="0.84" maxSpeed="1.39"/>
        <ride waitingTime="370.00" vehicle="on-demand.2" depart="442.00" arrival="774.00" arrivalPos="5.00" duration="332.00" routeLength="3098.32" timeLoss="66.15"/>
    </personinfo>
    <personinfo id="84" depart="85.00" type="DEFAULT_PEDTYPE">
        <walk depart="85.00" departPos="0.00" arrival="101.00" arrivalPos="21.08" duration="16.00" routeLength="21.08" timeLoss="0.84" maxSpeed="1.39"/>
        <ride waitingTime="344.00" vehicle="on-demand.3" depart="445.00" arrival="784.00" arrivalPos="5.00" duration="339.00" routeLength="3099.12" timeLoss="119.73"/>
    </personinfo>
    <personinfo id="167" depart="168.00" type="DEFAULT_PEDTYPE">
        <walk depart="168.00" departPos="0.00" arrival="179.00" arrivalPos="14.42" duration="11.00" routeLength="14.42" timeLoss="0.63" maxSpeed="1.39"/>
        <ride waitingTime="324.00" vehicle="on-demand.10" depart="503.00" arrival="805.00" arrivalPos="5.00" duration="302.00" routeLength="3031.09" timeLoss="63.91"/>
    </personinfo>
    <tripinfo id="10454276.0" depart="1790.00" departLane="325187141#1_1" departPos="12.10" departSpeed="0.00" departDelay="0.00" arrival="1879.00" arrivalLane="720137340_1" arrivalPos="3.64" arrivalSpeed="2.16" duration="89.00" routeLength="404.57" waitingTime="2.00" waitingCount="2" stopTime="20.00" timeLoss="36.66" rerouteNo="0" devices="tripinfo_10454276.0" vType="bus" speedFactor="1.07" vaporized=""/>
    <tripinfo id="10010282.0" depart="1796.00" departLane="325187141#1_1" departPos="12.10" departSpeed="0.00" departDelay="6.00" arrival="1903.00" arrivalLane="720137340_1" arrivalPos="3.64" arrivalSpeed="3.02" duration="107.00" routeLength="404.57" waitingTime="11.00" waitingCount="3" stopTime="20.00" timeLoss="53.91" rerouteNo="0" devices="tripinfo_10010282.0" vType="bus" speedFactor="1.06" vaporized=""/>
</tripinfos>
