<?xml version="1.0" encoding="UTF-8"?>

<!-- generated on 2022-03-10 08:50:44 by Eclipse SUMO GUI Version v1_11_0+0960-9a7789007a4
<configuration xmlns:xsi="http://www.w3.org/2001/XMLSchema-instance" xsi:noNamespaceSchemaLocation="http://sumo.dlr.de/xsd/sumoConfiguration.xsd">

    <input>
        <net-file value="../prt_infra/joined.net.xml"/>
        <route-files value="../demand/osm_activitygen_present_no_prt.rou.xml.gz,example_routes.xml"/>
        <additional-files value="../osm/pt_vtypes.xml,../osm/gtfs_publictransport.add.xml,../osm/gtfs_publictransport.rou.xml,../osm/osm_polygons.add.xml,../osm/defaults/basic.vType.xml,../osm/osm_complete_parking_areas.add.xml,../osm/osm_parking_rerouters.add.xml,../osm/osm_taxi_stands.add.xml,../osm/osm_taxi_rerouters.add.xml,../osm/induction_loops.add.xml,../osm/edge_lane_data.add.xml,../prt_infra/prt_poly.add.xml,../prt_infra/prt_stops_w_ALs.add.xml,../prt_infra/prt_fleet.add.xml"/>
    </input>

    <output>
        <output-prefix value="../osm/outputs/TIME_"/>
        <summary-output value="summary.out.xml"/>
        <person-summary-output value="person.summary.out.xml"/>
        <tripinfo-output value="tripinfo.out.xml"/>
        <tripinfo-output.write-unfinished value="false"/>
        <statistic-output value="statistics.out.xml"/>
    </output>

    <time>
        <begin value="0.0"/>
        <end value="86400.0"/>
        <step-length value="1"/>
    </time>

    <processing>
        <ignore-junction-blocker value="60"/>
        <ignore-route-errors value="true"/>
        <collision.action value="teleport"/>
        <time-to-teleport value="300"/>
        <max-depart-delay value="900"/>
        <time-to-impatience value="120"/>
        <parking.maneuver value="true"/>
        <pedestrian.model value="nonInteracting"/>
        <pedestrian.striping.stripe-width value="0.55"/>
        <pedestrian.striping.dawdling value="0.2"/>
        <pedestrian.striping.jamtime value="60"/>
        <pedestrian.striping.jamtime.crossing value="10"/>
        <pedestrian.striping.reserve-oncoming value="0.25"/>
        <pedestrian.striping.reserve-oncoming.junctions value="0.34"/>
        <ride.stop-tolerance value="25"/>
    </processing>

    <routing>
        <routing-algorithm value="astar"/>
        <persontrip.walkfactor value="0.75"/>
        <persontrip.transfer.car-walk value="parkingAreas,allJunctions"/>
        <persontrip.transfer.taxi-walk value="parkingAreas,allJunctions"/>
        <persontrip.transfer.walk-taxi value="parkingAreas,allJunctions"/>
        <persontrip.taxi.waiting-time value="300"/>
        <device.rerouting.probability value="1"/>
        <device.rerouting.period value="300"/>
        <device.rerouting.pre-period value="300"/>
        <device.rerouting.adaptation-interval value="10"/>
        <device.rerouting.threads value="4"/>
        <device.rerouting.bike-speeds value="true"/>
        <person-device.rerouting.probability value="1"/>
        <person-device.rerouting.period value="300"/>
    </routing>

    <report>
        <verbose value="true"/>
        <no-warnings value="false"/>
        <duration-log.disable value="false"/>
        <duration-log.statistics value="true"/>
        <no-step-log value="false"/>
    </report>

    <taxi_device>
        <device.taxi.dispatch-algorithm value="greedy"/>
        <device.taxi.dispatch-algorithm.output value="taxi.dispatch.out.xml"/>
        <device.taxi.dispatch-period value="60"/>
        <device.taxi.idle-algorithm value="stop"/>
        <device.taxi.idle-algorithm.output value="taxi.idle.out.xml"/>
    </taxi_device>

    <random_number>
        <seed value="42"/>
    </random_number>

    <gui_only>
        <gui-settings-file value="../osm/defaults/default-gui.xml"/>
        <tracker-interval value="1"/>
    </gui_only>

</configuration>
-->

<tripinfos xmlns:xsi="http://www.w3.org/2001/XMLSchema-instance" xsi:noNamespaceSchemaLocation="http://sumo.dlr.de/xsd/tripinfo_file.xsd">
    <personinfo id="4" depart="5.00" type="DEFAULT_PEDTYPE">
        <walk depart="5.00" departPos="0.00" arrival="21.00" arrivalPos="21.08" duration="16.00" routeLength="21.08" timeLoss="0.84" maxSpeed="1.39"/>
        <ride waitingTime="364.00" vehicle="on-demand.0" depart="385.00" arrival="462.00" arrivalPos="5.00" duration="77.00" routeLength="675.52" timeLoss="23.91"/>
    </personinfo>
    <tripinfo id="on-demand.5" depart="0.00" departLane="26013142_1" departPos="5.10" departSpeed="0.00" departDelay="0.00" arrival="557.00" arrivalLane="Station_arrival_1" arrivalPos="10.89" arrivalSpeed="3.85" duration="557.00" routeLength="828.90" waitingTime="302.00" waitingCount="2" stopTime="162.00" timeLoss="329.13" rerouteNo="2" devices="tripinfo_on-demand.5 routing_on-demand.5 taxi_on-demand.5" vType="uber" speedFactor="1.06" vaporized="">
        <taxi customers="0" occupiedDistance="0.00" occupiedTime="0.00"/>
    </tripinfo>
    <personinfo id="132" depart="133.00" type="DEFAULT_PEDTYPE">
        <walk depart="133.00" departPos="0.00" arrival="150.00" arrivalPos="22.87" duration="17.00" routeLength="22.87" timeLoss="0.55" maxSpeed="1.39"/>
        <ride waitingTime="354.00" vehicle="on-demand.7" depart="504.00" arrival="621.00" arrivalPos="5.00" duration="117.00" routeLength="1348.57" timeLoss="22.86"/>
    </personinfo>
    <personinfo id="179" depart="180.00" type="DEFAULT_PEDTYPE">
        <walk depart="180.00" departPos="0.00" arrival="196.00" arrivalPos="21.08" duration="16.00" routeLength="21.08" timeLoss="0.84" maxSpeed="1.39"/>
        <ride waitingTime="364.00" vehicle="on-demand.14" depart="560.00" arrival="640.00" arrivalPos="5.00" duration="80.00" routeLength="676.32" timeLoss="25.64"/>
    </personinfo>
    <personinfo id="176" depart="177.00" type="DEFAULT_PEDTYPE">
        <walk depart="177.00" departPos="0.00" arrival="193.00" arrivalPos="21.08" duration="16.00" routeLength="21.08" timeLoss="0.84" maxSpeed="1.39"/>
        <ride waitingTime="378.00" vehicle="on-demand.12" depart="571.00" arrival="653.00" arrivalPos="5.00" duration="82.00" routeLength="679.52" timeLoss="26.92"/>
    </personinfo>
    <personinfo id="160" depart="161.00" type="DEFAULT_PEDTYPE">
        <walk depart="161.00" departPos="0.00" arrival="172.00" arrivalPos="14.42" duration="11.00" routeLength="14.42" timeLoss="0.63" maxSpeed="1.39"/>
        <ride waitingTime="329.00" vehicle="on-demand.9" depart="501.00" arrival="656.00" arrivalPos="5.00" duration="155.00" routeLength="1497.60" timeLoss="33.39"/>
    </personinfo>
    <tripinfo id="on-demand.8" depart="0.00" departLane="34750129#1_1" departPos="5.10" departSpeed="0.00" departDelay="0.00" arrival="656.00" arrivalLane="Hotel_arrival_1" arrivalPos="13.51" arrivalSpeed="4.50" duration="656.00" routeLength="1482.13" waitingTime="303.00" waitingCount="2" stopTime="229.00" timeLoss="328.39" rerouteNo="2" devices="tripinfo_on-demand.8 routing_on-demand.8 taxi_on-demand.8" vType="taxi" speedFactor="1.14" vaporized="">
        <taxi customers="0" occupiedDistance="0.00" occupiedTime="0.00"/>
    </tripinfo>
    <personinfo id="178" depart="179.00" type="DEFAULT_PEDTYPE">
        <walk depart="179.00" departPos="0.00" arrival="195.00" arrivalPos="21.08" duration="16.00" routeLength="21.08" timeLoss="0.84" maxSpeed="1.39"/>
        <ride waitingTime="379.00" vehicle="on-demand.13" depart="574.00" arrival="661.00" arrivalPos="5.00" duration="87.00" routeLength="675.52" timeLoss="32.24"/>
    </personinfo>
    <personinfo id="131" depart="132.00" type="DEFAULT_PEDTYPE">
        <walk depart="132.00" departPos="0.00" arrival="149.00" arrivalPos="22.87" duration="17.00" routeLength="22.87" timeLoss="0.55" maxSpeed="1.39"/>
        <ride waitingTime="352.00" vehicle="on-demand.6" depart="501.00" arrival="661.00" arrivalPos="5.00" duration="160.00" routeLength="1493.11" timeLoss="34.63"/>
    </personinfo>
    <personinfo id="22" depart="23.00" type="DEFAULT_PEDTYPE">
        <walk depart="23.00" departPos="0.00" arrival="39.00" arrivalPos="21.08" duration="16.00" routeLength="21.08" timeLoss="0.84" maxSpeed="1.39"/>
        <ride waitingTime="349.00" vehicle="on-demand.1" depart="388.00" arrival="701.00" arrivalPos="5.00" duration="313.00" routeLength="3097.52" timeLoss="67.60"/>
    </personinfo>
    <personinfo id="55" depart="56.00" type="DEFAULT_PEDTYPE">
        <walk depart="56.00" departPos="0.00" arrival="72.00" arrivalPos="21.08" duration="16.00" routeLength="21.08" timeLoss="0.84" maxSpeed="1.39"/>
        <ride waitingTime="360.00" vehicle="on-demand.2" depart="432.00" arrival="709.00" arrivalPos="5.00" duration="277.00" routeLength="3098.32" timeLoss="97.37"/>
    </personinfo>
    <personinfo id="236" depart="237.00" type="DEFAULT_PEDTYPE">
        <walk depart="237.00" departPos="0.00" arrival="253.00" arrivalPos="21.08" duration="16.00" routeLength="21.08" timeLoss="0.84" maxSpeed="1.39"/>
        <ride waitingTime="365.00" vehicle="on-demand.16" depart="618.00" arrival="712.00" arrivalPos="5.00" duration="94.00" routeLength="677.92" timeLoss="26.62"/>
    </personinfo>
    <personinfo id="250" depart="251.00" type="DEFAULT_PEDTYPE">
        <walk depart="251.00" departPos="0.00" arrival="267.00" arrivalPos="21.08" duration="16.00" routeLength="21.08" timeLoss="0.84" maxSpeed="1.39"/>
        <ride waitingTime="354.00" vehicle="on-demand.17" depart="621.00" arrival="720.00" arrivalPos="5.00" duration="99.00" routeLength="678.72" timeLoss="53.51"/>
    </personinfo>
    <personinfo id="100" depart="101.00" type="DEFAULT_PEDTYPE">
        <walk depart="101.00" departPos="0.00" arrival="112.00" arrivalPos="14.42" duration="11.00" routeLength="14.42" timeLoss="0.63" maxSpeed="1.39"/>
        <ride waitingTime="321.00" vehicle="on-demand.4" depart="433.00" arrival="735.00" arrivalPos="5.00" duration="302.00" routeLength="2884.15" timeLoss="54.19"/>
    </personinfo>
    <personinfo id="84" depart="85.00" type="DEFAULT_PEDTYPE">
        <walk depart="85.00" departPos="0.00" arrival="101.00" arrivalPos="21.08" duration="16.00" routeLength="21.08" timeLoss="0.84" maxSpeed="1.39"/>
        <ride waitingTime="341.00" vehicle="on-demand.3" depart="442.00" arrival="748.00" arrivalPos="5.00" duration="306.00" routeLength="3099.12" timeLoss="74.53"/>
    </personinfo>
    <tripinfo id="on-demand.15" depart="0.00" departLane="309719296#1_1" departPos="5.10" departSpeed="0.00" departDelay="0.00" arrival="774.00" arrivalLane="Hospital_arrival_1" arrivalPos="18.37" arrivalSpeed="7.14" duration="774.00" routeLength="1620.06" waitingTime="302.00" waitingCount="2" stopTime="294.00" timeLoss="341.44" rerouteNo="2" devices="tripinfo_on-demand.15 routing_on-demand.15 taxi_on-demand.15" vType="taxi" speedFactor="0.88" vaporized="">
        <taxi customers="0" occupiedDistance="0.00" occupiedTime="0.00"/>
    </tripinfo>
    <personinfo id="167" depart="168.00" type="DEFAULT_PEDTYPE">
        <walk depart="168.00" departPos="0.00" arrival="179.00" arrivalPos="14.42" duration="11.00" routeLength="14.42" timeLoss="0.63" maxSpeed="1.39"/>
        <ride waitingTime="325.00" vehicle="on-demand.11" depart="504.00" arrival="800.00" arrivalPos="5.00" duration="296.00" routeLength="3031.09" timeLoss="87.91"/>
    </personinfo>
    <tripinfo id="10454276.0" depart="1790.00" departLane="325187141#1_1" departPos="12.10" departSpeed="0.00" departDelay="0.00" arrival="1879.00" arrivalLane="720137340_1" arrivalPos="3.64" arrivalSpeed="2.61" duration="89.00" routeLength="404.57" waitingTime="1.00" waitingCount="1" stopTime="20.00" timeLoss="36.59" rerouteNo="0" devices="tripinfo_10454276.0" vType="bus" speedFactor="1.07" vaporized=""/>
    <tripinfo id="10010282.0" depart="1795.00" departLane="325187141#1_1" departPos="12.10" departSpeed="0.00" departDelay="5.00" arrival="1901.00" arrivalLane="720137340_1" arrivalPos="3.64" arrivalSpeed="3.13" duration="106.00" routeLength="404.57" waitingTime="17.00" waitingCount="3" stopTime="20.00" timeLoss="53.13" rerouteNo="0" devices="tripinfo_10010282.0" vType="bus" speedFactor="1.06" vaporized=""/>
</tripinfos>
