<?xml version="1.0" encoding="UTF-8"?>

<!-- generated on 2022-01-18 08:46:34 by Eclipse SUMO sumo Version v1_11_0+0960-9a7789007a4
<configuration xmlns:xsi="http://www.w3.org/2001/XMLSchema-instance" xsi:noNamespaceSchemaLocation="http://sumo.dlr.de/xsd/sumoConfiguration.xsd">

    <input>
        <net-file value="osm.net.xml"/>
        <route-files value="trips.trips.xml"/>
        <additional-files value="osm_stops.add.xml"/>
    </input>

    <output>
        <vehroute-output value="vehroutes.xml"/>
        <stop-output value="stopinfos.xml"/>
    </output>

    <time>
        <begin value="0"/>
    </time>

    <processing>
        <ignore-route-errors value="true"/>
    </processing>

    <routing>
        <device.rerouting.adaptation-interval value="0"/>
    </routing>

    <report>
        <aggregate-warnings value="5"/>
        <error-log value="trips.trips.xml.errorlog"/>
        <no-step-log value="true"/>
    </report>

</configuration>
-->

<routes xmlns:xsi="http://www.w3.org/2001/XMLSchema-instance" xsi:noNamespaceSchemaLocation="http://sumo.dlr.de/xsd/routes_file.xsd">
    <vehicle id="3_train_RE5:1" type="pt_train" depart="17.00" departLane="0" arrival="259.00">
        <route edges="245858162 281243616#0 281243616#1 281243616#2 281243616#3 281243616#4"/>
        <stop busStop="4267243042" duration="30.00"/>
    </vehicle>

    <vehicle id="2_train_RE5:0" type="pt_train" depart="15.00" departLane="0" arrival="265.00">
        <route edges="275348780#0 275348780#1 275348780#2 275348780#3 275348780#4 275348780#5"/>
        <stop busStop="603236408" duration="30.00"/>
    </vehicle>

    <vehicle id="4_bus_470:0" type="pt_bus" depart="52.00" departLane="0" arrival="617.00">
        <route edges="254600529 860437804 286125147 286125142 286125150 154751819 744142989 261919657 26205488 261919662#0 286110833 244477221#0 98462787 321032843#0 248645889#0 248645889#2 146701421 321032838 321032846#0 321032846#1 321032835 321032848 240545255#0 37335809 240545259 23979548#0 127435987#1 240545277 240545276 102344315 23979550 240561445 887793169 23979552#0 240561427#1 159980917 720137340 124416778#0"/>
        <stop busStop="259997083" duration="30.00"/>
    </vehicle>

    <vehicle id="9_train_RB5:1" type="pt_train" depart="131.00" departLane="0" arrival="633.00">
        <route edges="275348780#0 275348780#1 275348780#2 275348780#3 275348780#4 275348780#5 126992227#0 126992227#1 126992227#2 307276514#0 307276514#1 275348777 26205504 250364941#1 719441084#1"/>
        <stop busStop="603236409" duration="30.00"/>
        <stop busStop="603236408" duration="30.00"/>
    </vehicle>

    <vehicle id="7_train_RB5:0" type="pt_train" depart="93.00" departLane="0" arrival="717.00">
        <route edges="291627152#0 291627152#1 291627152#2 288111069#0 288111069#1 281243614 245858162 281243616#0 281243616#1 281243616#2 281243616#3 281243616#4"/>
        <stop busStop="4267243042" duration="30.00"/>
        <stop busStop="1275784902" duration="30.00"/>
    </vehicle>

    <vehicle id="6_bus_360:1" type="pt_bus" depart="58.00" departLane="0" arrival="729.00">
        <route edges="-241913077#2 -241913077#1 -241913077#0 -242653667#0 -321022100 -321022099 -72499493 -98438503 -693049760#1 -693049760#0 693049758#0 -693049755#0 -531081828 -606803222#0 -541547520 -970701032 286127297 970701033#0 286110833 244477221#0 98462787 321032843#0 248645889#0 248645889#2 146701421 321032838 321032846#0 321032846#1 321032835 321032848 240545255#0 37335809 240545259 23979548#0 127435987#1 240545277 240545276 102344315 23979550 240561445 887793169 23979552#0 240561427#1 159980917 720137340 124416778#0 124416778#1 159982581 827717810#0 827717810#1 720137341 679781618#0 233791129#1 233791129#2 233791128 25945945#1 25945945#2 -124416801#1 -124416801#0"/>
        <stop busStop="-948566449" duration="30.00"/>
        <stop busStop="259997083" duration="30.00"/>
        <stop busStop="4256032974" duration="30.00"/>
        <stop busStop="-6205383609" duration="30.00"/>
    </vehicle>

    <vehicle id="5_bus_470:1" type="pt_bus" depart="55.00" departLane="0" arrival="748.00">
        <route edges="-124416801#0 -655079720#0 124416776#0 124416776#2 720137343#0 104668976#0 225006793#0 225006793#1 679781619 240561428#0 240561428#1 159980917 720137340 -720137340 -159980917 159980918#0 33139932 240561452 23979061 23554716#0 23554716#1 102344318 256186558#0 256186558#1 256186559#0 33140246 321032828 321032833 321032830 240545258#0 240545253#0 240545253#1 151702609#0 151702609#1 286130639#0 286130639#1 286130639#2 655129457 321032853#0 248645890 69918207 244477227 244477230 154751884 154751812 261919656 35980408#1 286125148 286125140 286125149 154751829 154751863#1 744142990 457979309"/>
        <stop busStop="-4256032973" duration="30.00"/>
        <stop busStop="6137947254" duration="30.00"/>
        <stop busStop="253161832" duration="30.00"/>
        <stop busStop="6137947256" duration="30.00"/>
    </vehicle>

    <vehicle id="10_bus_X33:0" type="pt_bus" depart="132.00" departLane="0" arrival="781.00">
        <route edges="124416773#0 124416773#1 124416773#2 124416773#3 146203660#0 146203660#1 128894638#0 128894638#1 288887619 37214772#2 37214772#3 172009563#0 172009563#1 128894641 128894642 240612228 240612225 -240612227 240612226 240612224 26175074 240545267 127435985 26175086 23773243 51678464 321447538 126812150 321447540#0 321447540#1 26209973#4 26175084#0 26175084#1 127435986#2 -26175083 190904366#0 190904366#1 190904366#2 244486728#0 -101371626#4 -101371626#3 -101371626#1 -101371626#0 23979555#0 23979555#1 348771448#1 23979552#0 240561427#1 159980917 720137340 124416778#0 124416778#1 159982581 827717810#0 827717810#1"/>
        <stop busStop="4256032969" duration="30.00"/>
    </vehicle>

    <vehicle id="8_train_ICE_50:0" type="pt_train" depart="126.00" departLane="0" arrival="869.00">
        <route edges="291627152#0 291627152#1 291627152#2 288111069#0 288111069#1 281243614 245858162 281243616#0 281243616#1 281243616#2 281243616#3 281243616#4"/>
        <stop busStop="4267243042" duration="30.00"/>
    </vehicle>

    <vehicle id="11_train_ICE_50:1" type="pt_train" depart="164.00" departLane="0" arrival="882.00">
        <route edges="275348780#0 275348780#1 275348780#2 275348780#3 275348780#4 275348780#5 126992227#0 126992227#1 126992227#2 307276514#0 307276514#1 275348777 26205504 250364941#1 719441084#1"/>
        <stop busStop="603236408" duration="30.00"/>
    </vehicle>

    <vehicle id="12_bus_300:0" type="pt_bus" depart="165.00" departLane="0" arrival="883.00">
        <route edges="325187141#1 124416776#0 124416776#2 720137343#0 104668976#0 225006793#0 225006793#1 971255571 240561452 23979061 23554716#0 23554716#1 102344318 256186558#0 256186558#1 256186559#0 33140246 321032828 321032833 321032830 240545258#0 37335810#0 37335810#1 240545266 240545260 240545265 240545274 26203167 321421860 321421854 233791123 321421855#0 321421855#1 541887713 67332190 233827759#0 233827759#1 233827759#2 233832326 67332191#0 67332191#1 67332191#2 67332191#3 67332191#6 321421865#0 321421865#1 67332186 321421861#0 321421861#1 321421861#2 321421861#3 321421861#4 321421861#6 321421861#7 321421861#8 321421861#9 321421861#10 341872602 67332189#0 67332189#1 67332189#2 67332189#3 67332189#5 67332189#6 67332189#7 4683013#0 4683013#1"/>
        <stop busStop="6189585489" duration="30.00"/>
        <stop busStop="253161832" duration="30.00"/>
        <stop busStop="29756643" duration="30.00"/>
        <stop busStop="790328207" duration="30.00"/>
        <stop busStop="29756813" duration="30.00"/>
        <stop busStop="6363208027" duration="30.00"/>
    </vehicle>

    <vehicle id="13_bus_300:1" type="pt_bus" depart="201.00" departLane="0" arrival="932.00">
        <route edges="-4683013#1 -4683013#0 -67332189#7 -67332189#6 -67332189#5 -67332189#3 -67332189#2 -67332189#1 -67332189#0 -341872602 -321421861#10 -321421861#9 -321421861#8 -321421861#7 -321421861#6 -321421861#5 -321421861#3 -321421861#2 -321421861#1 -321421861#0 -67332186 -321421865#1 -321421865#0 -67332191#6 -67332191#4 -67332191#2 -67332191#1 -67332191#0 -233832326 -233827759#2 -233827759#1 -233827759#0 -67332190 -541887713 -321421855#1 -321421855#0 -233791123 -321421854 -321421860 -26203167 -240545275 240545268 240545263 26205477 65547459 240545261 240545279 240545259 23979548#0 127435987#1 240545277 240545276 102344315 23979550 240561454 140124287 286119049 233791129#1 233791129#2 233791128 25945945#1 25945945#2 325187141#0 325187141#1"/>
        <stop busStop="-6363208028" duration="30.00"/>
        <stop busStop="-807097875" duration="30.00"/>
        <stop busStop="-3281721222" duration="30.00"/>
        <stop busStop="-6363208029" duration="30.00"/>
        <stop busStop="259997083" duration="30.00"/>
        <stop busStop="6189585489" duration="30.00"/>
    </vehicle>

    <vehicle id="15_bus_X33:1" type="pt_bus" depart="227.00" departLane="0" arrival="1022.00">
        <route edges="159980918#0 124416783#1 124416781#0 124416781#1 101371626#0 101371626#1 101371626#3 101371626#4 190904362#1 190904362#3 190904362#5 190904363 26209972 182210575#0 182210575#1 104494833-AddedOnRampEdge 104494833 -240545267 -26175079 -240612224 -240612226 240612227 -240612225 -240612228 -128894642 -128894641 -172009563#1 -172009563#0 37214772#4 37214772#1 -288887619 -128894638#1 -128894638#0 -146203660#1 -146203660#0 -124416773#3 -124416773#2 -124416773#1 -124416773#0 124416773#0 124416773#1 124416773#2 124416773#3 146203660#0 146203660#1 128894638#0 128894638#1 288887619 37214772#2 37214772#3 172009563#0 172009563#1 128894641 128894642 240612228 -240612228 -128894642"/>
        <stop busStop="6137947254" duration="30.00"/>
        <stop busStop="4256032976" duration="30.00"/>
        <stop busStop="-4256034101" duration="30.00"/>
        <stop busStop="-4256032967" duration="30.00"/>
        <stop busStop="-4256032969" duration="30.00"/>
    </vehicle>

    <vehicle id="14_bus_380:0" type="pt_bus" depart="204.00" departLane="0" arrival="1049.00">
        <route edges="124416773#0 124416773#1 124416773#2 124416773#3 146203660#0 146203660#1 128894638#0 128894638#1 288887619 37214772#2 37214772#3 172009563#0 172009563#1 128894641 128894642 240612228 105014788 -645561019#1 -645561019#0 -124416766 -29074526#3 -29074526#2 -29074526#1 -29074526#0 65547495#0 65547495#1 65547495#2 65547495#3 65547495#4 508611302#0 508611302#1 128896381 128896382 480697655 244486723#0 244486723#1 244486723#2 -104709800#4 -104709800#3 -104709800#2 -104709800#1 443007340 26222158#0 624255414#1 128897281#0 128897281#1 26013146#1 26013146#2 26013146#3 26013146#4 26013145#0 26013145#1 26013145#2 26013145#3 25946391"/>
        <stop busStop="1423153563" duration="30.00"/>
        <stop busStop="1423153572" duration="30.00"/>
        <stop busStop="-1423153571" duration="30.00"/>
        <stop busStop="2873550173" duration="30.00"/>
        <stop busStop="2873550175" duration="30.00"/>
        <stop busStop="-2873550176" duration="30.00"/>
        <stop busStop="1423165927" duration="30.00"/>
        <stop busStop="2873550178" duration="30.00"/>
    </vehicle>

    <vehicle id="28_bus_345:5" type="pt_bus" depart="437.00" departLane="0" arrival="1111.00">
        <route edges="325187141#1 124416776#0 124416776#2 720137343#0 104668976#0 225006793#0 225006793#1 679781619 240561428#0 240561428#1 159980917 720137340 124416778#0 124416778#1 159982581 827717810#0 827717810#1 720137341 679781618#0 23979554 225006793#0 225006793#1 971255571 240561452 23979061 23554716#0 23554716#1 102344318 256186558#0 256186558#1 256186559#0 33140246 321032828 321032833 321032830 240545258#0 37335810#0 37335810#1 159159345 233824688 151614067 321426008 680168807 159818918#0 159818918#1 200313016 321426012 321426017 321426015 321426011 321426002#0 321426002#1 321426002#2 321426002#3 321426002#4 321426002#5 742003277"/>
        <stop busStop="6189585489" duration="30.00"/>
        <stop busStop="4425634911" duration="30.00"/>
        <stop busStop="253161832" duration="30.00"/>
        <stop busStop="2441299019" duration="30.00"/>
    </vehicle>

    <vehicle id="21_bus_349:0" type="pt_bus" depart="353.00" departLane="0" arrival="1122.00">
        <route edges="-4683013#1 -4683013#0 -67332189#7 -67332189#6 -67332189#5 -67332189#3 -67332189#2 -67332189#1 -67332189#0 -341872602 -321421861#10 -321421861#9 -321421861#8 -321421861#7 -321421861#6 -321421861#5 -321421861#3 -321421861#2 -321421861#1 -321421861#0 -67332186 -321421865#1 -321421865#0 -67332191#6 -67332191#4 -67332191#2 -67332191#1 -67332191#0 -233832326 -233827759#2 -233827759#1 -233827759#0 -67332190 -541887713 -321421855#1 -321421855#0 -233791123 -321421854 -321421860 -26203167 -240545275 240545268 240545263 26205477 65547459 240545261 240545279 240545259 23979548#0 127435987#1 240545277 240545276 102344315 23979550 240561445 887793169 23979552#0 240561427#1 159980917 720137340 124416778#0 124416778#1 159982581 827717810#0 827717810#1 720137341 679781618#0 233791129#1 233791129#2 233791128 25945945#1 25945945#2 325187141#0 325187141#1"/>
        <stop busStop="4425634911" duration="30.00"/>
        <stop busStop="6189585489" duration="30.00"/>
    </vehicle>

    <vehicle id="17_train_ICE_50:3" type="pt_train" depart="303.00" departLane="0" arrival="1131.00">
        <route edges="275348780#0 275348780#1 275348780#2 275348780#3 275348780#4 275348780#5 126992227#0 126992227#1 126992227#2 307276514#0 307276514#1 275348777 26205504 250364941#1 719441084#1"/>
        <stop busStop="603236408" duration="30.00"/>
    </vehicle>

    <vehicle id="0_bus_330:0" type="pt_bus" depart="3.00" departLane="0" arrival="1176.00">
        <route edges="-742003272 -321426002#5 -321426002#4 -321426002#3 -321426002#2 -321426002#1 -321426002#0 25805460 321426021 159820357 65547459 240545261 240545279 240545259 23979548#0 127435987#1 240545277 240545276 102344315 23979550 240561454 140124287 286119049 233791129#1 233791129#2 233791128 25945945#1 25945945#2 325187141#0 325187141#1 124416776#0 124416776#2 720137343#0 104668976#0 225006793#0 225006793#1 679781619 240561428#0 240561428#1 159980917 720137340 124416778#0 124416778#1 159982581 827717810#0 827717810#1 720137341 679781618#0 23979554 225006793#0 225006793#1 971255571 240561452 23979061 23554716#0 23554716#1 102344318 256186558#0 256186558#1 256186559#0 33140246 321032828 321032833 321032830 240545258#0 37335810#0 37335810#1 240545266 240545260 240545265 240545274 26203167 321421860 321421854 233791123 321421855#0 321421855#1 541887713 67332190 233827759#0 233827759#1 233827759#2 233832326 67332191#0 67332191#1 67332191#2 67332191#3 67332191#6 321421865#0 321421865#1 67332186 321421861#0 321421861#1 321421861#2 321421861#3 321421861#4 321421861#6 321421861#7 321421861#8 321421861#9 321421861#10 341872602 67332189#0 67332189#1 67332189#2 67332189#3 67332189#5 67332189#6 67332189#7 4683013#0 4683013#1"/>
        <stop busStop="-281476590" duration="30.00"/>
        <stop busStop="6189585489" duration="30.00"/>
        <stop busStop="4425634911" duration="30.00"/>
        <stop busStop="253161832" duration="30.00"/>
        <stop busStop="29756643" duration="30.00"/>
        <stop busStop="790328207" duration="30.00"/>
        <stop busStop="29756813" duration="30.00"/>
        <stop busStop="6363208027" duration="30.00"/>
    </vehicle>

    <vehicle id="22_bus_349:1" type="pt_bus" depart="362.00" departLane="0" arrival="1177.00">
        <route edges="325187141#1 124416776#0 124416776#2 720137343#0 104668976#0 225006793#0 225006793#1 679781619 240561428#0 240561428#1 159980917 720137340 124416778#0 124416778#1 159982581 827717810#0 827717810#1 720137341 679781618#0 23979554 225006793#0 225006793#1 971255571 240561452 23979061 23554716#0 23554716#1 102344318 256186558#0 256186558#1 256186559#0 33140246 321032828 321032833 321032830 240545258#0 37335810#0 37335810#1 240545266 240545260 240545265 240545274 26203167 321421860 321421854 233791123 321421855#0 321421855#1 541887713 67332190 233827759#0 233827759#1 233827759#2 233832326 67332191#0 67332191#1 67332191#2 67332191#3 67332191#6 321421865#0 321421865#1 67332186 321421861#0 321421861#1 321421861#2 321421861#3 321421861#4 321421861#6 321421861#7 321421861#8 321421861#9 321421861#10 341872602 67332189#0 67332189#1 67332189#2 67332189#3 67332189#5 67332189#6 67332189#7 4683013#0 4683013#1"/>
        <stop busStop="6189585489" duration="30.00"/>
        <stop busStop="4425634911" duration="30.00"/>
    </vehicle>

    <vehicle id="23_bus_345:0" type="pt_bus" depart="371.00" departLane="0" arrival="1193.00">
        <route edges="-40156606#5 -40156606#4 -40156606#3 -40156606#2 -40156606#1 -40156606#0 -37728685#5 -37728685#4 -37728685#3 -37728685#2 -37728685#1 -37728685#0 -37728684#1 -37728684#0 -200313022#17 -200313022#16 -200313022#15 -200313022#14 -200313022#13 -200313022#12 -200313022#11 -200313022#9 -200313022#8 -200313022#7 -200313022#3 -200313022#2 -200313022#0 159818918#0 159818918#1 200313016 321426012 321426017 321426015 321426011 25805460 321426021 159820357 65547459 240545261 240545279 240545259 23979548#0 127435987#1 240545277 240545276 102344315 23979550 240561445 887793169 23979552#0 240561427#1 159980917 720137340 124416778#0 124416778#1 159982581 827717810#0 827717810#1 720137341 679781618#0 233791129#1 233791129#2 233791128 25945945#1 25945945#2 325187141#0 325187141#1"/>
        <stop busStop="-6989886667" duration="30.00"/>
        <stop busStop="-6989886662" duration="30.00"/>
        <stop busStop="-990476632" duration="30.00"/>
        <stop busStop="281476501" duration="30.00"/>
        <stop busStop="259997083" duration="30.00"/>
        <stop busStop="4425634911" duration="30.00"/>
        <stop busStop="6189585489" duration="30.00"/>
    </vehicle>

    <vehicle id="16_train_ICE_50:2" type="pt_train" depart="253.00" departLane="0" arrival="1218.00">
        <route edges="291627152#0 291627152#1 291627152#2 288111069#0 288111069#1 281243614 245858162 281243616#0 281243616#1 281243616#2 281243616#3 281243616#4"/>
        <stop busStop="4267243042" duration="30.00"/>
    </vehicle>

    <vehicle id="20_bus_340:1" type="pt_bus" depart="331.00" departLane="0" arrival="1237.00">
        <route edges="325187141#1 124416776#0 124416776#2 720137343#0 104668976#0 225006793#0 225006793#1 679781619 240561428#0 240561428#1 159980917 720137340 124416778#0 124416778#1 159982581 827717810#0 827717810#1 720137341 679781618#0 23979554 225006793#0 225006793#1 971255571 240561452 23979061 23554716#0 23554716#1 102344318 256186558#0 256186558#1 256186559#0 33140246 321032828 321032833 321032830 240545258#0 37335810#0 37335810#1 240545266 240545260 240545265 240545274 26203167 321421860 321421854 233791123 321421855#0 321421855#1 541887713 67332190 233827759#0 233827759#1 233827759#2 233832326 67332191#0 67332191#1 67332191#2 67332191#3 67332191#6 321421865#0 321421865#1 67332186 321421861#0 321421861#1 321421861#2 321421861#3 321421861#4 321421861#6 321421861#7 321421861#8 321421861#9 321421861#10 341872602 67332189#0 67332189#1 67332189#2 67332189#3 67332189#5 67332189#6 67332189#7 4683013#0 4683013#1"/>
        <stop busStop="6189585489" duration="30.00"/>
        <stop busStop="4425634911" duration="30.00"/>
        <stop busStop="253161832" duration="30.00"/>
        <stop busStop="29756643" duration="30.00"/>
        <stop busStop="790328207" duration="30.00"/>
        <stop busStop="29756813" duration="30.00"/>
        <stop busStop="6363208027" duration="30.00"/>
    </vehicle>

    <vehicle id="18_bus_380:1" type="pt_bus" depart="321.00" departLane="0" arrival="1267.00">
        <route edges="-124416801#0 -655079720#0 124416776#0 124416776#2 720137343#0 104668976#0 225006793#0 225006793#1 679781619 240561428#0 240561428#1 159980917 720137340 -720137340 -159980917 159980918#0 124416783#1 124416781#0 124416781#1 101371626#0 101371626#1 101371626#3 101371626#4 34750555#0 244486735#0 244486735#1 244486735#3 104709800#0 104709800#2 104709800#3 104709800#4 244486730 244486725#0 244486725#1 244486725#2 283502279 -128896381 -508611302#1 -508611302#0 -65547495#4 -65547495#3 -65547495#2 -65547495#1 -65547495#0 29074526#0 29074526#1 29074526#2 29074526#3 -283502278#2 182689756 283502277 128894649 240612227 -240612225 -240612228 -128894642 -128894641 -172009563#1 -172009563#0 37214772#4 37214772#1 -288887619 -128894638#1 -128894638#0 -146203660#1 -146203660#0 -124416773#3 -124416773#2 -124416773#1 -124416773#0"/>
        <stop busStop="-4256032973" duration="30.00"/>
        <stop busStop="6137947254" duration="30.00"/>
        <stop busStop="1423179202" duration="30.00"/>
        <stop busStop="2873550177" duration="30.00"/>
        <stop busStop="-1384946492" duration="30.00"/>
        <stop busStop="-2873550174" duration="30.00"/>
        <stop busStop="1384946480" duration="30.00"/>
        <stop busStop="-4256034101" duration="30.00"/>
        <stop busStop="-1423153564" duration="30.00"/>
    </vehicle>

    <vehicle id="24_bus_345:1" type="pt_bus" depart="383.00" departLane="0" arrival="1269.00">
        <route edges="-40156606#5 -40156606#4 -40156606#3 -40156606#2 -40156606#1 -40156606#0 -37728685#5 -37728685#4 -37728685#3 -37728685#2 -37728685#1 -37728685#0 -37728684#1 -37728684#0 -200313022#17 -200313022#16 -200313022#15 -200313022#14 -200313022#13 -200313022#12 -200313022#11 -200313022#9 -200313022#8 -200313022#7 -200313022#3 -200313022#2 -200313022#0 159818918#0 159818918#1 200313016 321426012 321426017 321426015 321426011 25805460 321426021 159820357 65547459 240545261 240545279 240545259 23979548#0 127435987#1 240545277 240545276 102344315 23979550 240561445 887793169 23979552#0 240561427#1 159980917 720137340 124416778#0 124416778#1 159982581 827717810#0 827717810#1 720137341 679781618#0 233791129#1 233791129#2 233791128 25945945#1 25945945#2 325187141#0 325187141#1"/>
        <stop busStop="-6989886667" duration="30.00"/>
        <stop busStop="-6989886662" duration="30.00"/>
        <stop busStop="-990476632" duration="30.00"/>
        <stop busStop="281476501" duration="30.00"/>
        <stop busStop="259997083" duration="30.00"/>
        <stop busStop="4425634911" duration="30.00"/>
        <stop busStop="6189585489" duration="30.00"/>
    </vehicle>

    <vehicle id="27_bus_345:4" type="pt_bus" depart="418.00" departLane="0" arrival="1270.00">
        <route edges="325187141#1 124416776#0 124416776#2 720137343#0 104668976#0 225006793#0 225006793#1 679781619 240561428#0 240561428#1 159980917 720137340 124416778#0 124416778#1 159982581 827717810#0 827717810#1 720137341 679781618#0 23979554 225006793#0 225006793#1 971255571 240561452 23979061 23554716#0 23554716#1 102344318 256186558#0 256186558#1 256186559#0 33140246 321032828 321032833 321032830 240545258#0 37335810#0 37335810#1 159159345 233824688 151614067 321426008 680168807 200313022#0 200313022#2 200313022#3 200313022#4 200313022#8 200313022#9 200313022#11 200313022#12 200313022#13 200313022#14 200313022#15 200313022#16 200313022#17 37728684#0 37728684#1 37728684#2 37728685#1 37728685#2 37728685#3 37728685#4 37728685#5 40156606#0 40156606#1 40156606#2 40156606#3 40156606#4 40156606#5"/>
        <stop busStop="6189585489" duration="30.00"/>
        <stop busStop="4425634911" duration="30.00"/>
        <stop busStop="253161832" duration="30.00"/>
        <stop busStop="6989886658" duration="30.00"/>
        <stop busStop="6367373310" duration="30.00"/>
        <stop busStop="6367373319" duration="30.00"/>
    </vehicle>

    <vehicle id="31_bus_340:2" type="pt_bus" depart="484.00" departLane="0" arrival="1323.00">
        <route edges="-4683013#1 -4683013#0 -67332189#7 -67332189#6 -67332189#5 -67332189#3 -67332189#2 -67332189#1 -67332189#0 -341872602 -321421861#10 -321421861#9 -321421861#8 -321421861#7 -321421861#6 -321421861#5 -321421861#3 -321421861#2 -321421861#1 -321421861#0 -67332186 -321421865#1 -321421865#0 -67332191#6 -67332191#4 -67332191#2 -67332191#1 -67332191#0 -233832326 -233827759#2 -233827759#1 -233827759#0 -67332190 -541887713 -321421855#1 -321421855#0 -233791123 -321421854 -321421860 -26203167 -240545275 240545268 240545263 26205477 65547459 240545261 240545279 240545259 23979548#0 127435987#1 240545277 240545276 102344315 23979550 240561445 887793169 23979552#0 240561427#1 159980917 720137340 124416778#0 124416778#1 159982581 827717810#0 827717810#1 720137341 679781618#0 233791129#1 233791129#2 233791128 25945945#1 25945945#2 325187141#0 325187141#1"/>
        <stop busStop="-6363208028" duration="30.00"/>
        <stop busStop="-807097875" duration="30.00"/>
        <stop busStop="-3281721222" duration="30.00"/>
        <stop busStop="-6363208029" duration="30.00"/>
        <stop busStop="259997083" duration="30.00"/>
        <stop busStop="4256032974" duration="30.00"/>
        <stop busStop="6189585489" duration="30.00"/>
    </vehicle>

    <vehicle id="25_bus_345:2" type="pt_bus" depart="389.00" departLane="0" arrival="1375.00">
        <route edges="-40156606#5 -40156606#4 -40156606#3 -40156606#2 -40156606#1 -40156606#0 -37728685#5 -37728685#4 -37728685#3 -37728685#2 -37728685#1 -37728685#0 -37728684#1 -37728684#0 -200313022#17 -200313022#16 -200313022#15 -200313022#14 -200313022#13 -200313022#12 -200313022#11 -200313022#9 -200313022#8 -200313022#7 -200313022#3 -200313022#2 -200313022#0 159818918#0 159818918#1 200313016 321426012 321426017 321426015 321426011 25805460 321426021 159820357 65547459 240545261 240545279 240545259 23979548#0 127435987#1 240545277 240545276 102344315 23979550 240561445 887793169 23979552#0 240561427#1 159980917 720137340 124416778#0 124416778#1 159982581 827717810#0 827717810#1 720137341 679781618#0 233791129#1 233791129#2 233791128 25945945#1 25945945#2 325187141#0 325187141#1"/>
        <stop busStop="-6989886667" duration="30.00"/>
        <stop busStop="-6989886662" duration="30.00"/>
        <stop busStop="-990476632" duration="30.00"/>
        <stop busStop="281476501" duration="30.00"/>
        <stop busStop="259997083" duration="30.00"/>
        <stop busStop="4425634911" duration="30.00"/>
        <stop busStop="6189585489" duration="30.00"/>
    </vehicle>

    <vehicle id="29_bus_345:6" type="pt_bus" depart="460.00" departLane="0" arrival="1393.00">
        <route edges="325187141#1 124416776#0 124416776#2 720137343#0 104668976#0 225006793#0 225006793#1 679781619 240561428#0 240561428#1 159980917 720137340 124416778#0 124416778#1 159982581 827717810#0 827717810#1 720137341 679781618#0 23979554 225006793#0 225006793#1 971255571 240561452 23979061 23554716#0 23554716#1 102344318 256186558#0 256186558#1 256186559#0 33140246 321032828 321032833 321032830 240545258#0 37335810#0 37335810#1 159159345 233824688 151614067 321426008 680168807 200313022#0 200313022#2 200313022#3 200313022#4 200313022#8 200313022#9 200313022#11 200313022#12 200313022#13 200313022#14 200313022#15 200313022#16 200313022#17 37728684#0 37728684#1 37728684#2 37728685#1 37728685#2 37728685#3 37728685#4 37728685#5 40156606#0 40156606#1 40156606#2 40156606#3 40156606#4 40156606#5"/>
        <stop busStop="6189585489" duration="30.00"/>
        <stop busStop="4425634911" duration="30.00"/>
        <stop busStop="253161832" duration="30.00"/>
        <stop busStop="6989886658" duration="30.00"/>
        <stop busStop="6367373310" duration="30.00"/>
        <stop busStop="6367373319" duration="30.00"/>
    </vehicle>

    <vehicle id="19_bus_340:0" type="pt_bus" depart="326.00" departLane="0" arrival="1412.00">
        <route edges="-4683013#1 -4683013#0 -67332189#7 -67332189#6 -67332189#5 -67332189#3 -67332189#2 -67332189#1 -67332189#0 -341872602 -321421861#10 -321421861#9 -321421861#8 -321421861#7 -321421861#6 -321421861#5 -321421861#3 -321421861#2 -321421861#1 -321421861#0 -67332186 -321421865#1 -321421865#0 -67332191#6 -67332191#4 -67332191#2 -67332191#1 -67332191#0 -233832326 -233827759#2 -233827759#1 -233827759#0 -67332190 -541887713 -321421855#1 -321421855#0 -233791123 65526291 321421866 65526285 233826136 321421868 -25805440 -370552773 -233824686#1 -233824686#0 -65526288 679688944#1 679688944#2 -742003272 -321426002#5 -321426002#4 -321426002#3 -321426002#2 -321426002#1 -321426002#0 25805460 321426021 159820357 65547459 240545261 240545279 240545259 23979548#0 127435987#1 240545277 240545276 102344315 23979550 240561445 887793169 23979552#0 240561427#1 159980917 720137340 124416778#0 124416778#1 159982581 827717810#0 827717810#1 720137341 679781618#0 233791129#1 233791129#2 233791128 25945945#1 25945945#2 325187141#0 325187141#1"/>
        <stop busStop="-6363208028" duration="30.00"/>
        <stop busStop="-807097875" duration="30.00"/>
        <stop busStop="-3281721222" duration="30.00"/>
        <stop busStop="-6363208029" duration="30.00"/>
        <stop busStop="-281476590" duration="30.00"/>
        <stop busStop="259997083" duration="30.00"/>
        <stop busStop="4425634911" duration="30.00"/>
        <stop busStop="6189585489" duration="30.00"/>
    </vehicle>

    <vehicle id="30_bus_345:7" type="pt_bus" depart="499.00" departLane="0" arrival="1433.00">